ITEM: TIMESTEP
0
ITEM: NUMBER OF ATOMS
21600
ITEM: BOX BOUNDS pp pp pp
0.0 85.54701693
0.0 89.60552856
0.0 86.19108532
ITEM: ATOMS id type x y z CN O octa G RVDOS voro
1	1	75.2780764	88.82920877	75.30055564	5.751244	0.46230699	1	0.00087758	1.08E-05	2.95E+01
2	1	20.50510027	35.49299933	18.20187074	5.482587	0.597134	1	0.00097114	1.25E-05	2.91E+01
3	1	57.38456238	61.70244479	35.93234905	4.363184	0.42513755	0	0.00130568	1.60E-05	2.53E+01
4	1	48.46389076	27.3524049	40.4026588	5.412935	0.45456871	1	0.00106732	6.13E-06	2.54E+01
5	1	84.8812007	4.52896292	81.52202431	5.726368	0.51051015	1	0.00100186	2.40E-05	2.60E+01
6	1	82.37294714	57.62815585	30.73839744	6.228856	0.40738866	1	0.0009733	7.03E-06	2.72E+01
7	1	26.39084697	25.41931821	25.27539945	6.129353	0.57935816	1	0.00103553	1.50E-05	2.67E+01
8	1	5.16504669	74.32248346	12.13746325	5.890547	0.74314198	1	0.00126922	6.51E-06	2.56E+01
9	1	21.32458975	12.972475	62.41257101	5.950249	0.57886748	1	0.0009414	1.90E-05	2.64E+01
10	1	47.43250906	6.07883088	53.96020093	6.044776	0.57167024	1	0.00099546	9.93E-06	2.70E+01
11	1	58.67833593	71.47137191	16.35425396	4.029851	0.59367649	0	0.00079668	3.50E-05	3.23E+01
12	1	32.20826003	19.856448	27.29610479	4.900498	0.48677433	1	0.00069611	1.00E-05	2.92E+01
13	1	6.75843952	39.13172791	59.76762001	5.79602	0.58376327	1	0.00118161	5.55E-06	2.53E+01
14	1	9.6106978	54.17245474	2.28246362	6.0199	0.45923473	1	0.00092312	6.14E-06	2.61E+01
15	1	49.58194376	6.60040086	57.04717623	4.472637	0.42242036	0	0.00064023	3.68E-05	3.07E+01
16	1	47.50956826	53.87990478	72.07582404	5.378109	0.40813962	1	0.00090918	1.39E-05	2.79E+01
17	1	77.47557426	81.47148716	79.84183538	5.0199	0.57002403	1	0.00084978	1.14E-05	2.92E+01
18	1	67.23925661	80.29631983	31.11171518	5.462687	0.63103228	1	0.000785	1.47E-05	2.89E+01
19	1	34.86250813	75.13734002	13.15490341	5.791045	0.5835123	1	0.0009182	1.92E-05	2.80E+01
20	1	61.3784339	12.47193924	37.18389619	5.134328	0.50551776	1	0.00090438	9.49E-06	2.88E+01
21	1	58.66414456	17.46269259	31.29421831	5.029851	0.81584561	1	0.00118449	6.39E-06	2.99E+01
22	1	80.00586381	62.78866354	72.16265938	5.875622	0.74586261	1	0.00105915	8.50E-06	2.82E+01
23	1	28.18502284	79.10916928	31.79034742	4.208955	0.329583	0	0.00099071	1.73E-05	2.65E+01
24	1	80.64896243	32.2498886	23.64446646	5.318408	0.64934614	1	0.00109143	1.02E-05	2.83E+01
25	1	45.08830447	68.02941055	53.12556987	4.328358	0.64084654	0	0.00097312	3.66E-05	2.96E+01
26	1	85.02456149	51.34951746	60.25548975	5.278607	0.58519636	1	0.00106749	1.37E-05	2.98E+01
27	1	74.03391384	12.09263459	11.36571165	4.890547	0.3716554	1	0.00093612	2.96E-05	2.76E+01
28	1	54.23494772	88.23763838	59.596486	5.393035	0.46254424	1	0.00088034	1.46E-05	2.63E+01
29	1	30.51592187	36.66507315	22.21405567	5.41791	0.63461534	1	0.0013479	1.25E-05	2.50E+01
30	1	18.33225613	20.74541985	49.9774842	4.60199	0.45404314	1	0.00079572	1.79E-05	2.86E+01
31	1	35.15863532	24.1518557	2.41156567	5.731343	0.55234941	1	0.00087658	1.13E-05	2.75E+01
32	1	3.3534619	81.76114791	35.14048957	4.696517	0.50971026	0	0.00097355	1.55E-05	2.93E+01
33	1	81.64620878	83.61976093	62.75847832	6.004975	0.84724396	1	0.00132039	4.52E-06	2.60E+01
34	1	32.49470387	-0.06772211	81.36943766	5.960199	0.6524857	1	0.00103889	3.59E-05	2.35E+01
35	1	33.90040925	5.37982101	7.20866793	4.567164	0.47806726	1	0.00068125	1.88E-05	2.85E+01
36	1	28.51389595	84.10093081	21.63302425	5.791045	0.53175014	1	0.0008953	9.23E-06	2.97E+01
37	1	80.04452698	87.56100866	57.40994771	6.258706	0.68368923	1	0.00114064	5.88E-06	3.20E+01
38	1	38.69190441	20.09776007	56.2439744	5.985075	0.83139928	1	0.00099124	8.41E-06	2.88E+01
39	1	10.30835334	60.28762368	30.25038926	4.701493	0.49443679	1	0.00087428	1.13E-05	2.87E+01
40	1	81.44303536	46.82834817	61.79049387	4.895522	0.67201862	1	0.00104344	1.23E-05	2.92E+01
41	1	13.85184083	77.17825955	53.0335268	6.661692	0.61274385	1	0.00111398	1.76E-05	2.56E+01
42	1	4.27435514	87.90744137	43.55222302	5.900498	0.61743931	1	0.00082257	1.64E-05	3.02E+01
43	1	52.68240622	22.01101892	67.94098676	5.199005	0.73673881	1	0.00104881	8.47E-06	2.65E+01
44	1	73.90590675	19.93976369	80.92244795	5.955224	0.85058449	1	0.00127123	1.16E-05	2.68E+01
45	1	29.04915568	5.51008513	76.11008223	4.497512	0.52758817	0	0.00076679	3.03E-05	3.05E+01
46	1	67.72130854	57.46196591	43.24792884	5.497512	0.36540893	1	0.00111685	1.47E-05	2.65E+01
47	1	0.95783519	3.92644885	53.04197423	6.253731	0.40832406	1	0.00086345	5.51E-06	2.83E+01
48	1	18.2900288	41.78566303	46.09555037	4.940299	0.53032127	1	0.00069427	1.03E-05	2.94E+01
49	1	64.40299792	78.25441278	48.6107508	5.810945	0.49007891	1	0.00088439	1.40E-05	2.86E+01
50	1	31.91215753	6.28407891	28.84931337	4.711443	0.49232513	1	0.000876	3.65E-05	2.86E+01
51	1	59.60081138	34.14485631	71.45330676	4.920398	0.52836542	1	0.00092375	1.25E-05	2.81E+01
52	1	32.99675086	52.14613299	50.69728126	4.348259	0.51981825	0	0.00082869	1.25E-05	3.03E+01
53	1	35.83887522	27.36893259	46.8395078	5.024876	0.6704461	1	0.0010085	2.61E-05	2.68E+01
54	1	77.5330206	15.37057118	16.58504322	5.860697	0.68806921	1	0.00119673	1.11E-05	2.62E+01
55	1	59.87126442	56.77840777	43.0580565	5.487562	0.43747007	1	0.00089888	7.63E-06	2.81E+01
56	1	62.04940831	87.03236001	36.77846313	5.552239	0.41745306	1	0.00084576	3.82E-05	2.78E+01
57	1	48.73203808	43.69707548	43.54560894	5.870647	0.58984218	1	0.0010337	6.07E-06	2.73E+01
58	1	55.72077284	13.65461797	48.40876869	5.189055	0.4936294	1	0.00093158	2.17E-05	2.76E+01
59	1	37.32924806	37.15207594	7.46216139	5.323383	0.5140604	1	0.00105978	1.51E-05	2.85E+01
60	1	67.62859003	25.66494542	7.82369871	5.333333	0.60064445	1	0.00093114	1.13E-05	2.75E+01
61	1	10.01176759	0.65709441	60.93418781	5.368159	0.72650421	1	0.00091971	1.03E-05	2.76E+01
62	1	26.96407946	10.0237008	9.02911321	4.751244	0.36566851	1	0.00083088	6.03E-06	3.05E+01
63	1	48.96195754	16.92735162	20.46393051	5.651741	0.53497802	1	0.00085021	1.08E-05	2.79E+01
64	1	76.68646532	83.27127027	72.9670138	4.437811	0.6350727	0	0.00107859	8.53E-06	2.86E+01
65	1	51.30736738	4.60462325	70.21803513	5.38806	0.63540517	1	0.00094407	3.24E-05	2.94E+01
66	1	16.44238572	47.74849774	66.46087177	5.074627	0.61114966	1	0.00094839	1.61E-05	3.08E+01
67	1	72.69780652	33.8084913	73.88883613	5.169154	0.78510147	1	0.0011126	8.27E-06	2.75E+01
68	1	39.78402044	0.49313045	14.59140987	5.114428	0.68760864	1	0.00124546	1.38E-05	2.35E+01
69	1	70.96157817	59.29282545	42.55360097	5.208955	0.50165974	1	0.0008497	2.15E-05	3.04E+01
70	1	11.29401781	33.02966878	49.40917749	5.248756	0.59950693	1	0.00098722	1.77E-05	3.02E+01
71	1	24.3410764	40.44718787	64.1119293	6.174129	0.65326632	1	0.00136269	1.88E-05	2.70E+01
72	1	22.75651667	53.83481328	38.80835863	5.58209	0.38532922	1	0.00065118	7.45E-06	2.74E+01
73	1	23.28663292	74.62192304	58.63465722	5.437811	0.61699373	1	0.00109436	9.80E-06	2.66E+01
74	1	34.33547566	46.11521644	23.09222273	4.701493	0.52715991	1	0.0008517	1.34E-05	2.89E+01
75	1	35.54232631	9.71291549	20.71926976	5.616915	0.67149598	1	0.00101646	1.20E-05	2.75E+01
76	1	36.91656625	32.29222278	18.49018979	4.920398	0.6962811	1	0.00115034	1.06E-05	2.89E+01
77	1	39.98900965	34.69808437	38.91154729	5.970149	0.70725555	1	0.00110513	1.04E-05	2.63E+01
78	1	79.52545834	55.87711478	84.0459481	5.771144	0.4850268	1	0.00079009	2.66E-05	2.82E+01
79	1	42.39562451	86.19365837	79.97702765	4.104478	0.65764778	1	0.00088364	1.06E-05	3.03E+01
80	1	38.62609372	49.55998382	21.32951097	4.432836	0.31712315	1	0.0011787	2.05E-05	2.63E+01
81	1	55.48643689	81.64735221	14.32634021	4.99005	0.7432116	1	0.00101078	1.44E-05	3.06E+01
82	1	50.67810098	74.18037788	12.15186464	6.064677	0.37022284	1	0.00078655	1.47E-05	2.76E+01
83	1	6.9525184	22.25003359	66.24781024	5.746269	0.52271317	1	0.00111874	9.99E-06	2.66E+01
84	1	56.24814865	83.47407676	70.03140277	6	0.62155783	1	0.00129689	9.68E-06	2.57E+01
85	1	73.77166782	52.97505198	0.71142623	6.129353	0.52714521	1	0.00097889	8.42E-06	2.82E+01
86	1	80.61479401	4.7315985	19.28756698	5.975124	0.71606775	1	0.00128852	7.29E-06	2.52E+01
87	1	7.57506923	71.81443445	44.00417044	4.830846	0.45409413	0	0.00071257	4.91E-05	3.05E+01
88	1	55.79224477	71.64961739	55.80306454	5.343284	0.58645979	1	0.00086722	2.56E-05	2.99E+01
89	1	56.05759089	50.58901775	72.9123782	5.875622	0.60838557	1	0.00101329	1.62E-05	2.74E+01
90	1	26.95668446	15.56691431	31.14588672	4.671642	0.54942768	1	0.00087312	1.44E-05	2.96E+01
91	1	8.89168044	61.36425108	70.44511554	6.542289	0.62531535	1	0.00107556	1.25E-05	2.69E+01
92	1	18.84713784	87.23899702	71.8318376	5.726368	0.64763677	1	0.00109127	1.06E-05	2.74E+01
93	1	52.54968466	36.00381992	20.84944106	5.885572	0.49324128	1	0.0009968	2.55E-05	2.82E+01
94	1	8.77808329	49.79783624	63.29352725	4.442786	0.66959295	0	0.00097812	2.14E-05	2.94E+01
95	1	9.73402333	29.48675297	49.0489259	4.258706	0.46603931	0	0.00088445	1.91E-05	2.84E+01
96	1	21.90203339	41.96516992	53.20167289	5.044776	0.50700134	1	0.00098101	1.63E-05	2.83E+01
97	1	54.47564085	74.1834751	1.37286151	5.228856	0.4000873	0	0.00068882	1.47E-05	2.74E+01
98	1	50.57483101	28.02559622	43.48724085	4.810945	0.35296583	1	0.00077321	2.56E-05	2.84E+01
99	1	10.23512088	40.43661737	1.46661711	5.587065	0.38964303	1	0.00091913	1.31E-05	2.59E+01
100	1	31.93333457	2.58065257	82.50556223	4.895522	0.47005604	1	0.00114418	1.18E-05	2.67E+01
101	1	67.22879403	9.3937258	15.67321155	4.641791	0.49491175	1	0.00069695	1.24E-05	3.03E+01
102	1	15.41757267	10.51455088	84.22752207	5.21393	0.78499054	1	0.00100086	1.08E-05	2.66E+01
103	1	11.67264477	88.67505192	14.6698564	5.074627	0.53728143	1	0.00084341	9.90E-06	3.04E+01
104	1	71.21088203	52.02278191	83.87112139	6	0.80835986	1	0.00124347	8.40E-06	2.68E+01
105	1	21.36428698	28.66665424	28.25302607	5.776119	0.60783919	1	0.00099348	1.12E-05	2.76E+01
106	1	11.81129133	44.9014346	47.58065246	5.935323	0.60066125	1	0.00116461	1.09E-05	2.51E+01
107	1	65.48204597	14.14005285	29.36863071	5.975124	0.65674612	1	0.00106415	1.16E-05	2.72E+01
108	1	75.20999905	20.37429555	22.9472723	4.935323	0.61916526	1	0.00085192	1.51E-05	2.76E+01
109	1	35.84414387	60.77644831	25.67134249	5.995025	0.5770077	1	0.00108539	8.94E-06	2.65E+01
110	1	72.62384595	48.52750034	62.21840601	5.218905	0.57896618	1	0.00099549	3.61E-05	2.80E+01
111	1	33.2852216	86.83805148	72.75591282	5.447761	0.39694028	1	0.00086748	1.16E-05	2.85E+01
112	1	82.20293297	62.61262116	21.23970347	5.457711	0.70144634	1	0.00122531	6.20E-06	2.77E+01
113	1	9.48409536	68.3670175	9.14876304	6.154229	0.5280623	1	0.00107236	1.08E-05	2.77E+01
114	1	63.71513404	5.26302261	41.81254074	5.995025	0.71380475	1	0.00114189	1.05E-05	2.70E+01
115	1	42.3979772	61.61230141	53.63706655	5.99005	0.65186041	1	0.00127523	8.14E-06	2.55E+01
116	1	7.97472081	34.74999645	65.37471557	4.995025	0.8009821	1	0.00107005	1.07E-05	3.04E+01
117	1	48.80094131	67.58619779	52.61031836	4.900498	0.76471332	1	0.00099559	1.71E-05	2.96E+01
118	1	70.67975904	3.00379922	17.00714297	6.124378	0.73679543	1	0.00132732	8.40E-06	2.46E+01
119	1	73.26188116	9.22623099	2.37779421	4.840796	0.5860948	1	0.00077907	8.13E-06	3.18E+01
120	1	63.44202832	36.90995286	38.96909313	5.880597	0.58589273	1	0.00106444	1.41E-05	2.66E+01
121	1	84.8282411	57.49118618	44.04104976	5.517413	0.5373447	1	0.00105527	3.08E-05	2.80E+01
122	1	6.99680682	56.63840894	33.18280956	4.751244	0.50882101	1	0.00095014	1.02E-05	2.86E+01
123	1	43.88374885	36.19430763	32.4245951	6.00995	0.60308889	1	0.00109088	1.57E-05	2.76E+01
124	1	84.03417427	10.01586792	67.36915646	6.343284	0.48769595	1	0.00103371	1.14E-05	2.65E+01
125	1	8.7944426	55.83298563	43.7859007	5.621891	0.64852978	1	0.00100685	7.77E-06	2.77E+01
126	1	51.27157245	61.9904349	22.75138569	5.472637	0.60259803	1	0.00093554	1.09E-05	2.88E+01
127	1	52.10433821	65.67374558	1.49452694	4.59204	0.58329735	1	0.00103087	1.35E-05	2.88E+01
128	1	60.68944993	59.44071261	10.45136323	6.024876	0.40842978	0	0.00081639	1.54E-05	2.63E+01
129	1	48.13629231	13.88148771	34.46747521	5.726368	0.66203815	1	0.00104463	1.28E-05	2.87E+01
130	1	4.14090424	54.10460931	34.92405471	5	0.6827578	1	0.0009878	8.90E-06	2.92E+01
131	1	8.68803564	23.74872866	63.50573491	4.825871	0.4024081	1	0.00070074	1.13E-05	2.99E+01
132	1	61.67127741	71.84310292	27.89388135	4.58209	0.34258676	1	0.00070383	3.05E-05	2.79E+01
133	1	18.46191783	47.46370659	0.79047947	5.308458	0.66735538	1	0.00104247	9.14E-06	2.99E+01
134	1	40.92106798	16.37562053	43.12952887	4.288557	0.68135296	0	0.00102075	9.28E-06	2.89E+01
135	1	56.38985481	20.07659191	64.15804467	5.776119	0.43881766	1	0.00083759	1.31E-05	2.75E+01
136	1	4.91676255	22.04288168	33.60338183	5.054726	0.44776928	1	0.00084299	1.10E-05	2.75E+01
137	1	27.50316841	61.57936865	0.15560296	5.004975	0.40615654	1	0.00078316	1.51E-05	2.85E+01
138	1	67.77851203	74.80823291	37.02058031	5.970149	0.4024238	1	0.00079008	7.52E-06	2.69E+01
139	1	31.98470063	66.41559371	77.6898326	5.034826	0.62347557	1	0.0009575	8.04E-06	2.85E+01
140	1	58.26730446	8.49227582	55.81020042	6.00995	0.63846437	1	0.00115525	9.42E-06	2.60E+01
141	1	45.32950881	59.87583521	0.88123198	4.671642	0.42557337	1	0.00079108	1.43E-05	3.01E+01
142	1	43.29083723	20.37008262	59.24017173	5.313433	0.4379717	1	0.00084319	1.40E-05	2.70E+01
143	1	19.72039225	49.3361199	16.08079892	5.955224	0.76893466	1	0.00129416	6.86E-06	2.68E+01
144	1	27.22560118	10.77985493	5.36593553	5.985075	0.57008775	1	0.00113117	6.76E-06	2.59E+01
145	1	78.18552607	31.36111487	53.18839069	4.820896	0.43142144	1	0.00074442	1.94E-05	2.86E+01
146	1	45.96161598	-0.32641142	53.0501047	5.298507	0.40954845	1	0.00083655	1.80E-05	2.80E+01
147	1	23.15796044	12.1853002	14.01872383	5.432836	0.71726302	1	0.0010497	1.36E-05	2.95E+01
148	1	41.68863306	17.54300919	2.50222673	4.482587	0.47632567	0	0.00099637	2.16E-05	2.86E+01
149	1	71.37686026	23.95978234	5.39567833	4.562189	0.66894451	1	0.00099776	3.78E-05	3.24E+01
150	1	55.77819804	41.21335065	30.21815216	6.935323	0.52770047	1	0.00118112	2.23E-05	2.58E+01
151	1	51.17677545	26.18975841	78.97541238	4.41791	0.63899818	0	0.00098813	8.02E-06	3.02E+01
152	1	29.33764422	75.47190611	75.23947498	6	0.77805357	1	0.00140439	7.80E-06	2.58E+01
153	1	68.25670325	61.07606085	12.22826237	4.089552	0.77572092	0	0.00102259	1.02E-05	2.94E+01
154	1	66.61273329	34.95135558	40.29969777	4.40796	0.54553556	0	0.00080648	9.20E-06	2.87E+01
155	1	63.62801743	0.78262545	37.49725617	5.547264	0.51742128	1	0.00102428	1.09E-05	3.00E+01
156	1	79.84531814	2.33512478	66.02569522	6.472637	0.52729751	1	0.00122693	8.62E-06	2.57E+01
157	1	71.04152162	47.73290719	39.94013172	5.179104	0.42612421	1	0.00113538	2.34E-05	2.70E+01
158	1	74.67032472	5.10156444	0.35112428	6.671642	0.45827994	1	0.00110537	1.46E-05	2.71E+01
159	1	14.87076931	70.83042035	66.08551145	4.965174	0.57337836	1	0.00075379	6.10E-06	2.88E+01
160	1	64.43152393	43.43667954	72.25262434	4.781095	0.63518232	0	0.00096326	1.46E-05	3.02E+01
161	1	43.43275188	64.26429193	4.66095623	5.537313	0.46060854	1	0.00093761	1.15E-05	2.81E+01
162	1	16.70911851	87.76984397	30.18922325	6	0.70179296	1	0.00118481	1.70E-05	2.59E+01
163	1	15.91290322	63.97823118	27.20999396	4.18408	0.59128675	0	0.00086812	1.68E-05	2.90E+01
164	1	11.40739272	87.95801468	62.98153478	6	0.71502218	1	0.00123233	6.39E-06	2.55E+01
165	1	29.98475752	87.34951381	67.5835434	5.218905	0.46454651	1	0.00096602	7.98E-06	2.95E+01
166	1	74.78849483	54.11146807	32.06955699	4.995025	0.57442066	1	0.00105603	9.69E-06	2.81E+01
167	1	43.15302539	79.41168634	76.0372879	5.134328	0.42366871	1	0.0008051	2.53E-05	2.79E+01
168	1	61.16894847	30.3533215	70.40697236	6	0.73578059	1	0.00137608	1.35E-05	2.52E+01
169	1	71.47133448	75.857758	6.4596056	5.437811	0.54814047	1	0.00101219	7.87E-06	2.89E+01
170	1	17.76125169	2.17358714	52.03559276	5.104478	0.34787928	1	0.00111308	3.24E-05	2.62E+01
171	1	12.07543115	13.37361922	20.23399532	5.666667	0.34951959	1	0.0006901	7.95E-06	2.69E+01
172	1	61.21061009	50.13019661	24.33194039	5.577114	0.47738386	1	0.00071697	1.50E-05	2.89E+01
173	1	57.38941487	14.55998163	69.01462516	5.860697	0.71472889	1	0.00116137	1.12E-05	2.89E+01
174	1	46.44725931	3.19912352	53.84548697	4.900498	0.61463854	1	0.00091779	2.45E-05	2.86E+01
175	1	63.00008829	41.18531026	78.26892671	5.890547	0.58534385	1	0.00098643	1.84E-05	2.83E+01
176	1	24.2543197	59.63801901	67.93473207	5.736318	0.3880153	1	0.00083858	2.14E-05	2.92E+01
177	1	23.52582627	40.33841879	49.98218973	4.467662	0.50017853	1	0.0008815	9.45E-06	2.94E+01
178	1	7.14438931	55.32185126	3.67561887	5.985075	0.36899928	1	0.00103792	6.35E-06	2.62E+01
179	1	41.44310362	40.28324168	37.50586946	5.562189	0.66130637	1	0.00092494	3.14E-05	2.71E+01
180	1	68.50904986	25.93757906	62.90435392	6.034826	0.33954131	1	0.00085808	2.02E-05	2.63E+01
181	1	2.34068257	88.1454049	71.08566796	6.049751	0.50148277	1	0.00099765	8.67E-06	2.92E+01
182	1	4.85534495	10.61398394	0.77301483	4.970149	0.46860369	1	0.00089016	1.46E-05	3.00E+01
183	1	47.42156857	73.61303849	33.93903768	5.985075	0.69134812	1	0.00117607	1.29E-05	2.53E+01
184	1	36.38877829	83.6957763	14.73473006	5.338308	0.5193982	1	0.00086278	1.22E-05	2.85E+01
185	1	14.70470496	69.06766921	21.21649626	5.004975	0.72433559	1	0.00102882	9.13E-06	3.29E+01
186	1	69.09180688	62.23145824	55.87537419	5.00995	0.62909553	1	0.00104741	7.81E-06	2.70E+01
187	1	2.36393857	43.3006956	35.09191849	5.970149	0.60601214	1	0.00118136	8.82E-06	2.69E+01
188	1	64.25476067	88.8645934	51.37936326	5.587065	0.63369822	1	0.00088043	2.36E-05	2.79E+01
189	1	83.46462276	60.76713921	29.28958696	5.99005	0.53310163	1	0.0012082	2.28E-05	2.86E+01
190	1	13.38178959	36.86719772	31.08924941	5.587065	0.79979294	1	0.00120955	1.65E-05	2.85E+01
191	1	19.0498644	35.65203261	55.18670852	5.079602	0.61566601	1	0.0009134	1.54E-05	3.02E+01
192	1	20.5610314	62.18837836	74.04415774	5.691542	0.57504019	1	0.00091542	2.43E-05	2.72E+01
193	1	46.45867753	49.36135754	21.7025128	6.477612	0.50325678	1	0.00088437	1.14E-05	2.59E+01
194	1	17.44519939	11.74442186	21.91099906	6.074627	0.45672922	1	0.0009052	9.70E-06	2.79E+01
195	1	61.38536967	21.0623113	56.85176285	5.004975	0.71572703	1	0.00113821	1.84E-05	2.84E+01
196	1	46.75516195	88.66733309	41.94705183	6.054726	0.61027195	1	0.00118268	1.33E-05	2.29E+01
197	1	34.60564476	43.86418204	64.713448	4.049751	0.72109217	0	0.00097873	8.56E-06	3.05E+01
198	1	27.16141366	36.56157882	67.84031671	5.014925	0.55533761	1	0.00085459	1.55E-05	2.92E+01
199	1	9.72989468	10.86905052	19.94744789	5.810945	0.34130479	1	0.00078478	1.50E-05	2.54E+01
200	1	44.42189729	15.38291141	34.04409477	5.099502	0.51705629	1	0.00079945	1.43E-05	2.70E+01
201	1	44.62706262	0.56925617	8.93299304	5.676617	0.56922255	1	0.00101719	1.06E-05	2.90E+01
202	1	16.4871576	11.88230423	31.47199413	5.208955	0.7335769	1	0.00110269	9.09E-06	2.93E+01
203	1	79.99146145	59.6326298	39.05496453	5.169154	0.55412822	1	0.00113294	7.15E-06	2.85E+01
204	1	7.52466544	58.78815108	17.6929858	5.930348	0.56747819	1	0.00088509	2.62E-05	2.70E+01
205	1	68.79764463	55.81722878	27.52331405	4.661692	0.65100847	1	0.00088142	1.11E-05	2.97E+01
206	1	80.36801681	45.56332767	9.70605813	6.014925	0.60802394	1	0.00102937	1.66E-05	2.58E+01
207	1	58.92127584	39.78336199	5.49039727	4.771144	0.54331024	1	0.00089908	1.79E-05	2.93E+01
208	1	47.57138729	6.843566	74.85538598	5.38806	0.56827298	1	0.00097049	9.70E-06	2.74E+01
209	1	32.4719969	85.03288899	55.66412023	6.577114	0.32693692	1	0.00101443	7.98E-06	2.69E+01
210	1	45.08409212	70.52016532	38.35881575	5.547264	0.49719534	1	0.00101935	1.88E-05	2.59E+01
211	1	19.98542488	2.38727425	71.09742052	5.109453	0.5443197	1	0.00085689	1.14E-05	2.69E+01
212	1	21.10823084	9.43245494	78.47763138	6.243781	0.64384017	1	0.00107545	9.61E-06	2.75E+01
213	1	59.61694581	52.08257388	57.82434014	5.985075	0.60355124	1	0.00112963	1.18E-05	2.61E+01
214	1	71.22172868	70.82331992	6.06500277	6.298507	0.64132069	1	0.00104455	1.22E-05	2.73E+01
215	1	14.07163061	7.97081766	17.52499364	6	0.77273006	1	0.00126048	1.35E-05	2.63E+01
216	1	81.0125525	42.66180315	3.60605403	5.293532	0.66792783	1	0.00094029	1.98E-05	2.74E+01
217	1	52.8556498	75.84496538	60.3700181	5.114428	0.62748241	1	0.00092649	8.06E-06	2.75E+01
218	1	15.87662152	73.63041055	15.63921347	5.945274	0.51379089	1	0.00108853	7.73E-06	2.66E+01
219	1	63.18919557	14.35860334	62.61909322	5.393035	0.5300183	1	0.00106637	9.15E-06	2.95E+01
220	1	82.3040174	21.12668027	52.43268623	5.99005	0.76319968	1	0.0011716	1.26E-05	2.65E+01
221	1	47.58821777	63.07438739	53.08689435	4.890547	0.5592228	1	0.0009423	1.94E-05	2.98E+01
222	1	42.00726779	20.85385072	85.70879989	4.681592	0.43183482	1	0.00079861	1.66E-05	3.05E+01
223	1	33.87188024	45.95215002	39.22766536	5.353234	0.55372427	1	0.00100557	8.54E-06	2.78E+01
224	1	29.69151445	24.01015134	78.07779841	5.621891	0.38421274	1	0.00103589	8.19E-06	2.66E+01
225	1	0.08109746	35.40172777	36.36961964	4.323383	0.42677775	0	0.00063702	1.64E-05	2.97E+01
226	1	55.39806505	49.36665986	84.32133853	5.402985	0.33042292	0	0.00061838	1.35E-05	2.79E+01
227	1	70.76236671	75.56868072	34.10001228	5.049751	0.79138084	1	0.00102423	1.11E-05	3.06E+01
228	1	76.08294056	74.07712611	52.71638591	5.079602	0.78424692	1	0.00103274	1.20E-05	2.94E+01
229	1	70.42561538	11.77844816	42.75301822	5.039801	0.54752826	1	0.00092212	8.16E-06	2.89E+01
230	1	77.76051226	36.74368945	75.41522848	5.238806	0.48963578	1	0.00100933	4.04E-06	2.74E+01
231	1	55.83568687	4.14247244	33.63275286	6	0.72861409	1	0.00145453	8.31E-06	2.52E+01
232	1	65.18932538	72.82615246	66.90217715	5.338308	0.54585619	1	0.00108895	8.43E-06	2.94E+01
233	1	44.06944954	48.97186112	72.14408052	5.517413	0.45819414	1	0.00088391	1.27E-05	2.76E+01
234	1	72.79514701	86.6555254	56.28675265	6.40796	0.42535364	1	0.00090199	1.21E-05	2.73E+01
235	1	35.588208	39.15571161	-0.50772849	4.029851	0.6084487	0	0.00083618	8.95E-05	3.00E+01
236	1	57.83146641	88.97868537	25.24056878	6.995025	0.39224756	1	0.00089508	1.23E-05	2.52E+01
237	1	33.96322213	42.77098636	70.52967619	5.855721	0.61557041	1	0.00101772	2.10E-05	2.80E+01
238	1	60.675865	28.67044402	74.55545917	4.945274	0.6767706	1	0.00099111	1.64E-05	2.94E+01
239	1	78.7671022	11.79241591	33.74458855	5.975124	0.51060615	1	0.00085684	2.31E-05	2.78E+01
240	1	68.12819691	19.13790124	59.00921548	5.557214	0.66615155	1	0.00093807	1.22E-05	2.85E+01
241	1	64.28015049	11.01591992	45.33531988	5.00995	0.57177931	1	0.0009765	1.57E-05	2.80E+01
242	1	76.4503554	88.81101621	82.41765102	6.139303	0.59662769	1	0.00111306	9.73E-06	2.85E+01
243	1	39.66806132	73.12597081	11.25879083	5.676617	0.38125369	1	0.00080321	8.54E-06	2.78E+01
244	1	10.54969926	33.93273494	41.85962898	5.671642	0.45197274	1	0.00118492	1.29E-05	2.44E+01
245	1	46.75268824	64.22963964	60.67475444	5.447761	0.64780709	1	0.00105418	8.77E-06	2.73E+01
246	1	76.23229361	27.52483352	11.27266247	6	0.76300154	1	0.00127632	7.24E-06	2.56E+01
247	1	44.43000248	48.17292623	76.77626911	4.074627	0.56267769	0	0.00086393	9.80E-06	3.33E+01
248	1	76.83561374	27.6579131	59.9808429	5.810945	0.83975738	1	0.00133085	1.01E-05	2.63E+01
249	1	57.67203367	86.6936075	22.22754038	4.661692	0.46851355	0	0.00095185	1.10E-05	2.76E+01
250	1	71.95863005	69.9447179	34.59785638	5.144279	0.50947963	0	0.0007699	1.73E-05	2.79E+01
251	1	37.76230163	82.66693888	82.4193014	4.746269	0.61120807	0	0.00082218	2.95E-05	3.10E+01
252	1	82.83552267	19.67798188	48.69533724	5.363184	0.56124883	1	0.00089127	1.01E-05	2.85E+01
253	1	3.97939702	68.05635526	68.59890298	4.38806	0.58996069	0	0.00085358	8.54E-06	2.92E+01
254	1	12.31138345	40.75996622	4.35784	5.228856	0.64005137	1	0.00097028	1.29E-05	2.71E+01
255	1	81.27361422	11.94682029	37.85325329	6.059701	0.61954899	1	0.00117607	9.01E-06	2.54E+01
256	1	61.74324222	44.77458984	17.19570514	4.925373	0.28252908	1	0.00138703	1.04E-05	2.57E+01
257	1	57.25609492	15.99873652	13.77504138	5.328358	0.44370034	1	0.00086551	2.46E-05	2.76E+01
258	1	79.27768996	44.890547	-0.67748095	5.378109	0.54997252	1	0.00103774	7.49E-05	2.74E+01
259	1	28.63495207	0.24836464	70.30928597	5.965174	0.55888422	1	0.00096341	1.63E-05	2.67E+01
260	1	74.14816937	13.95779378	70.16899362	4.004975	0.28135655	0	0.00114051	1.08E-05	2.80E+01
261	1	70.55749414	26.873598	19.31455609	5.427861	0.47765622	0	0.00081135	1.08E-05	2.84E+01
262	1	56.68323925	19.29068533	17.3423378	4.910448	0.51139651	1	0.00079759	5.65E-05	2.74E+01
263	1	22.58250864	78.7666026	29.02015912	5.766169	0.43885872	1	0.00071097	1.01E-05	2.89E+01
264	1	81.91930705	86.67090551	2.67216898	5.557214	0.62265764	1	0.00098486	3.46E-05	2.74E+01
265	1	7.62204277	53.00206608	46.73988987	5.766169	0.43452379	1	0.00098151	8.59E-06	2.73E+01
266	1	40.29361593	27.76306759	71.65321184	5.333333	0.60751934	1	0.0009396	9.14E-06	2.79E+01
267	1	67.45754766	24.70763057	56.46244004	5.646766	0.57989096	1	0.00086882	1.05E-05	2.89E+01
268	1	80.2040886	54.15224607	49.98837629	5.771144	0.47357864	1	0.00082897	8.85E-06	2.76E+01
269	1	45.38120161	14.54813157	82.59159506	5.004975	0.57790731	1	0.00090531	1.70E-05	2.85E+01
270	1	83.65513477	37.67569	1.97063571	4.243781	0.51468612	0	0.00094045	1.15E-05	3.13E+01
271	1	75.73431995	12.53344051	4.23717696	5.323383	0.78580823	1	0.0011813	6.85E-06	2.79E+01
272	1	52.43412076	82.17972837	85.03792228	5.865672	0.44446572	1	0.00091646	1.24E-05	2.74E+01
273	1	62.76952852	70.01843849	22.67472278	5.995025	0.62557974	1	0.00093312	1.44E-05	2.74E+01
274	1	53.15830709	44.78131145	58.08106723	6.154229	0.62599942	1	0.00120216	1.29E-05	2.53E+01
275	1	23.5811628	14.2575094	10.76303205	5.940299	0.82035091	1	0.00135181	5.77E-06	2.61E+01
276	1	49.49767341	62.87482056	18.65930874	5.069652	0.68062176	1	0.00094134	9.74E-06	2.96E+01
277	1	42.87179646	72.30835178	9.11378358	6	0.72087965	1	0.0013729	8.86E-06	2.53E+01
278	1	66.03652771	15.73524791	54.33069018	5.218905	0.51695018	1	0.00087416	9.00E-06	2.81E+01
279	1	12.94354285	4.03356089	43.93608596	5.507463	0.54387634	1	0.00104817	6.23E-06	2.59E+01
280	1	22.91509477	38.80331085	28.21376996	4.562189	0.37851302	1	0.00123456	1.16E-05	2.62E+01
281	1	65.03539535	31.23108489	27.55307073	6.164179	0.73540684	1	0.00142997	9.55E-06	2.49E+01
282	1	74.33707224	18.498088	49.87235585	5.502488	0.49100306	1	0.00103389	1.01E-05	2.62E+01
283	1	11.14348276	8.49847005	46.22879491	6.19403	0.63325117	1	0.00117464	8.69E-06	2.56E+01
284	1	72.80428828	7.80656275	72.77264544	6.054726	0.47767843	1	0.00092438	1.63E-05	2.95E+01
285	1	26.78428084	78.04541154	48.22516846	5.885572	0.49851637	1	0.00083739	1.17E-05	2.88E+01
286	1	10.51376455	28.29469155	80.39816489	5.089552	0.25463641	0	0.0015257	9.68E-06	2.58E+01
287	1	84.81733656	29.34904793	9.92155255	5.930348	0.74491831	1	0.00121302	1.20E-05	2.69E+01
288	1	64.99498622	83.24803535	82.75475976	5.313433	0.57756113	1	0.00087106	1.62E-05	2.89E+01
289	1	44.38125621	17.71448987	80.77908251	6.004975	0.52393969	1	0.00110423	1.44E-05	2.54E+01
290	1	75.28270098	8.1317777	30.22909963	5.835821	0.58940658	1	0.0010099	2.62E-05	2.79E+01
291	1	54.11722535	28.83981121	26.83506303	5.159204	0.51133244	1	0.00093339	6.88E-05	2.98E+01
292	1	25.63432888	60.04703915	82.54027895	5.502488	0.53929944	1	0.00082163	4.31E-05	2.85E+01
293	1	65.65920492	86.67323847	69.82821988	5.064677	0.53087781	1	0.00089436	1.78E-05	2.82E+01
294	1	24.33641487	54.52470437	78.79886168	5.975124	0.74574373	1	0.00119044	9.44E-06	2.74E+01
295	1	51.76629042	7.41992352	60.21452353	4.228856	0.82264745	0	0.00088972	2.52E-05	2.95E+01
296	1	2.92285551	29.15375575	76.44896932	5.199005	0.51664442	1	0.00110258	1.41E-05	2.66E+01
297	1	23.81871805	15.80618386	3.26791414	4.58209	0.80706154	1	0.001039	8.45E-06	2.92E+01
298	1	19.87797283	31.70489481	17.58082812	5.353234	0.61432073	1	0.00106987	6.88E-06	2.82E+01
299	1	69.48584926	20.90505724	-0.23170312	5.995025	0.59422571	1	0.0010216	1.10E-05	2.92E+01
300	1	13.21815173	26.16996744	18.5961196	5.985075	0.79812327	1	0.00119612	1.28E-05	2.74E+01
301	1	61.90579729	17.21037454	13.8738959	5.567164	0.38468299	1	0.0010859	2.19E-05	2.71E+01
302	1	0.18029111	53.70705105	48.0845098	4.985075	0.63654227	1	0.00102112	6.77E-06	2.73E+01
303	1	24.73491869	42.44794704	73.77420062	5.646766	0.7380444	1	0.0011	1.34E-05	2.86E+01
304	1	71.69041524	2.99474779	32.92784924	5.537313	0.66415285	1	0.00096618	1.23E-05	2.94E+01
305	1	0.29753272	44.23684378	56.89305735	3.975124	0.64165518	1	0.00099726	9.65E-06	2.85E+01
306	1	18.47333481	20.18253342	28.51735909	5.99005	0.72186784	1	0.00132832	1.17E-05	2.58E+01
307	1	20.35239987	9.42531249	57.59880362	5.21393	0.41026555	1	0.00078337	1.07E-05	2.75E+01
308	1	0.54090392	77.80001393	0.11020447	6.19403	0.68120529	1	0.00117096	7.52E-06	2.75E+01
309	1	80.02450884	50.10208556	78.61821378	4.840796	0.70908148	1	0.0011175	1.87E-05	2.86E+01
310	1	32.56406305	82.52366685	21.92162744	6.457711	0.62044529	1	0.00100956	8.14E-06	2.76E+01
311	1	54.76951387	45.73163887	45.11270956	5.373134	0.51567393	1	0.00099132	1.36E-05	2.78E+01
312	1	51.69051197	31.73242205	25.25636699	4.497512	0.56321335	1	0.00078409	1.46E-05	2.96E+01
313	1	12.94803487	22.81694619	16.66469576	5.00995	0.56989997	1	0.00090036	1.25E-05	2.71E+01
314	1	41.93243983	54.38116913	63.15782729	6	0.7698391	1	0.00131955	7.39E-06	2.64E+01
315	1	45.1293915	45.43790367	82.55822303	4.965174	0.72813521	1	0.0009912	8.36E-06	3.05E+01
316	1	26.36121525	55.44747352	72.05946809	5.288557	0.59740322	1	0.0009286	2.01E-05	2.78E+01
317	1	20.6954168	67.9486315	62.39172571	4.940299	0.54325548	1	0.0009514	1.07E-05	2.90E+01
318	1	69.1490833	61.548523	52.07582628	4.880597	0.64958061	1	0.00116014	7.82E-06	2.79E+01
319	1	69.33237965	19.61556951	64.93325336	5.800995	0.3283754	1	0.00110062	1.69E-05	2.78E+01
320	1	30.30949127	56.55802029	3.43104371	4.049751	0.61428565	0	0.0009322	1.30E-05	3.00E+01
321	1	12.75927276	82.10109755	63.92973689	5.00995	0.53392696	1	0.00075235	3.67E-05	2.83E+01
322	1	63.99142958	25.55827411	24.96791403	4.925373	0.44148374	1	0.00112866	1.20E-05	2.43E+01