ITEM: TIMESTEP
0
ITEM: NUMBER OF ATOMS
21600
ITEM: BOX BOUNDS pp pp pp
0.0 85.49568393
0.0 89.90620624
0.0 85.34128367
ITEM: ATOMS id type x y z CN O octa G RVDOS
1	1	78.20049933	2.17298122	69.13656331	6	0.86132403	1	0.00123806	4.25122E-06
2	1	17.79790188	39.73753008	20.26878371	7	0.48379861	1	0.00114355	2.85196E-05
3	1	55.47059019	60.14925647	36.64844255	6	0.82534408	1	0.00128135	7.25535E-06
4	1	49.80071526	34.02502341	39.44866123	6	0.7769967	1	0.00122574	7.99594E-06
5	1	83.29011676	-0.31365162	78.09448114	4	0.53196847	0	0.00067519	1.42136E-05
6	1	80.04551479	61.41027112	28.57710399	5	0.6705478	1	0.00090539	2.12698E-05
7	1	25.79498865	28.54888683	31.83288323	5	0.53654346	1	0.0009313	7.24454E-06
8	1	8.61491499	82.52698502	15.88328704	4	0.50357254	0	0.00097594	2.65222E-05
9	1	19.53212399	13.29408889	51.71506997	7	0.50534418	1	0.00096752	1.49783E-05
10	1	49.83367753	6.23303929	51.28491499	6	0.92769834	1	0.00130833	1.87611E-06
11	1	59.43502716	66.72969474	19.96562857	4	0.51718541	0	0.00095633	3.27831E-05
12	1	38.10721407	19.70493192	28.16807693	6	0.7944881	1	0.00117779	7.5539E-06
13	1	7.35654466	39.99408676	59.62602771	6	0.87097081	1	0.00119113	3.13566E-06
14	1	10.40373271	58.13525774	7.45947709	6	0.82087604	1	0.00122138	3.86354E-06
15	1	49.77246628	5.8460724	57.25432005	5	0.67302456	1	0.00107553	3.48385E-06
16	1	47.88078488	53.97485508	69.45106083	6	0.84349989	1	0.00129178	6.03051E-06
17	1	81.13515364	81.80780326	81.60035483	7	0.45743837	1	0.00096711	6.80227E-06
18	1	65.6454339	81.25267184	26.71477094	6	0.84615908	1	0.00126234	5.74855E-06
19	1	36.59506561	76.23633963	15.22656554	6	0.89284209	1	0.00126707	4.52515E-06
20	1	63.05593382	10.1074976	33.68877553	6	0.81515528	1	0.00135625	6.18922E-06
21	1	56.21494383	28.14089427	28.24077562	6	0.92085639	1	0.00130556	2.92133E-06
22	1	80.05904341	61.3905519	73.9865019	6	0.63473916	1	0.00131287	8.91949E-06
23	1	26.93755423	73.45528524	32.61958135	6	0.72974494	1	0.00112725	6.08391E-06
24	1	83.45882922	31.03589401	19.74046652	6	0.77644911	1	0.00111323	8.18318E-06
25	1	48.73445599	71.61542075	55.11669969	6	0.76747919	1	0.00120046	6.33552E-06
26	1	8.48573372	51.82187727	65.56976404	5	0.5809253	1	0.00092139	1.21071E-05
27	1	68.74989982	11.77254317	15.75310193	5	0.66692406	1	0.00089243	1.12038E-05
28	1	63.87442741	83.44517334	68.71096319	6	0.80186634	1	0.00139736	6.87187E-06
29	1	32.84935779	36.80320099	21.64851434	5	0.68299607	1	0.00080694	1.09998E-05
30	1	19.04620538	21.45142392	48.29855874	6	0.6330444	1	0.00117327	7.88461E-06
31	1	26.63964715	20.32456658	82.88160453	6	0.45716409	1	0.00070713	4.88514E-05
32	1	5.70477149	81.85880393	28.6913498	5	0.59923857	1	0.00084029	7.62789E-06
33	1	81.93079099	83.48252452	62.04265183	6	0.92057384	1	0.00128186	4.62343E-06
34	1	29.87484307	1.44339161	81.63077962	6	0.79880831	1	0.00137619	6.67988E-06
35	1	29.37869845	4.01985387	8.30751459	6	0.50001435	1	0.00069378	5.60218E-05
36	1	16.16264333	1.83952753	24.1407936	5	0.50700294	1	0.00087925	9.36356E-06
37	1	80.59099552	87.06797397	55.99782157	6	0.77190194	1	0.00105641	7.04753E-06
38	1	38.66428864	21.02553231	55.43511009	6	0.93123992	1	0.00129787	3.4555E-06
39	1	7.67410464	67.09201298	26.65091757	4	0.3444088	0	0.00136296	9.46676E-06
40	1	81.30284741	43.16204899	59.7712961	6	0.80010679	1	0.00142745	5.14814E-06
41	1	15.16885119	61.98017467	55.62120594	6	0.75027731	1	0.00132722	4.86391E-06
42	1	6.98885904	89.51353501	48.86114994	5	0.60654539	1	0.00102691	9.87153E-06
43	1	54.1222467	22.44870776	73.19385037	6	0.84997739	1	0.00142144	4.82578E-06
44	1	74.35578281	18.9204009	81.26109376	6	0.71622573	1	0.00098558	5.63634E-06
45	1	25.98413648	3.78962192	77.72620728	6	0.86940884	1	0.00134932	3.52322E-06
46	1	70.79111655	55.09925639	47.81968645	5	0.38359397	1	0.00080607	6.24666E-06
47	1	3.37730954	2.65826481	55.12096375	6	0.89961184	1	0.00142846	5.58326E-06
48	1	22.83626394	44.98619559	53.84720233	5	0.6152736	1	0.00089549	7.15968E-06
49	1	64.47956905	78.44971511	44.06698315	6	0.81929028	1	0.00157077	5.36506E-06
50	1	26.58740934	1.92433634	29.78398816	6	0.84680701	1	0.00099503	6.52001E-06
51	1	58.54803235	32.60322125	65.8027993	6	0.40865961	1	0.00099981	7.02799E-06
52	1	32.47398835	47.52885835	58.06722869	6	0.85463855	1	0.00125794	1.01735E-05
53	1	33.96891172	26.10227458	46.12309099	6	0.91308227	1	0.0012491	4.53324E-06
54	1	77.01413926	24.46730742	16.15487689	6	0.90706785	1	0.00131591	8.68732E-06
55	1	68.32928725	53.46435241	46.97982355	5	0.68767292	1	0.00115409	9.42117E-06
56	1	62.59447337	87.90184957	30.53268165	6	0.71695342	1	0.00095718	7.12773E-06
57	1	54.82252891	47.29848424	39.48280171	6	0.58028112	1	0.00093827	4.83509E-06
58	1	59.93907908	12.77596822	57.59717692	4	0.60395473	0	0.0007744	1.16604E-05
59	1	34.2841068	39.11207028	7.80996856	5	0.4711311	1	0.00078665	1.22457E-05
60	1	67.31631976	26.45170127	5.04046853	6	0.77190935	1	0.00119887	5.7569E-06
61	1	6.51240556	87.98815312	56.91888082	6	0.83711931	1	0.00119274	4.44843E-06
62	1	27.4958047	8.78955157	9.09512846	5	0.52252087	1	0.00093607	1.17561E-05
63	1	49.00342984	17.35556061	13.61428645	6	0.77776975	1	0.00118873	8.49293E-06
64	1	74.15128415	78.76755458	70.90126392	5	0.56545765	1	0.00114896	5.32489E-06
65	1	54.28698345	2.99551393	66.57024233	6	0.73108564	1	0.00140076	8.19609E-06
66	1	17.82010227	50.52261209	66.56646566	6	0.81468161	1	0.00117302	7.26864E-06
67	1	74.06628502	34.52701255	74.25460165	6	0.41477965	1	0.00076687	1.33178E-05
68	1	41.65342978	4.14133393	12.84928139	5	0.48491422	1	0.00084123	1.40883E-05
69	1	71.33982027	49.80819875	41.61483203	6	0.86166718	1	0.00135552	8.23437E-06
70	1	13.7308337	33.63367738	41.11057281	6	0.75201348	1	0.0013519	5.8922E-06
71	1	24.63387284	42.12926292	62.88497091	6	0.90415992	1	0.00128739	3.22757E-06
72	1	22.33802427	54.54119132	41.98595538	6	0.78615887	1	0.00120315	5.47048E-06
73	1	29.91811444	68.76518858	63.92508095	6	0.76556263	1	0.00112505	1.39323E-05
74	1	22.54133584	52.62241941	18.81981308	6	0.8096447	1	0.00116585	1.29733E-05
75	1	35.15138418	9.51305252	21.11672775	6	0.90509618	1	0.00124373	3.98547E-06
76	1	36.60231335	30.76871237	15.80671314	7	0.40753709	1	0.00097473	8.48291E-06
77	1	35.8337698	32.72455324	36.35058505	6	0.86912146	1	0.00112682	3.73751E-06
78	1	79.35255972	57.18854793	82.74471177	6	0.60905522	1	0.00098867	6.01809E-06
79	1	43.6161591	1.73272917	79.31262138	4	0.46365084	0	0.00072433	4.3599E-05
80	1	44.07071294	47.14397218	23.21415902	6	0.55296953	1	0.00099519	7.36198E-06
81	1	54.64064518	77.90519496	14.55312796	6	0.85409517	1	0.00130669	4.9099E-06
82	1	48.90866204	73.3826673	14.72889655	6	0.73288842	1	0.00111656	4.93802E-06
83	1	5.75424613	21.79604834	65.72687555	6	0.84631386	1	0.00113808	3.29262E-06
84	1	62.38355743	86.34755236	76.15895678	5	0.60419157	1	0.00106023	1.54623E-05
85	1	73.5311633	55.23628787	0.50617516	7	0.60228493	1	0.0012063	8.30041E-06
86	1	81.54229478	3.84989857	23.26591946	5	0.68526221	1	0.00082922	2.06802E-05
87	1	6.32799584	70.84364581	45.75283355	6	0.88968671	1	0.0011545	2.79511E-06
88	1	57.04576692	76.56956816	54.09814673	5	0.46786141	1	0.00080331	8.27153E-06
89	1	55.36614551	58.84711062	79.38938069	6	0.74398379	1	0.00120166	1.12527E-05
90	1	35.82588483	12.82030039	32.49291263	6	0.67508867	1	0.00098635	1.24001E-05
91	1	5.58223837	58.87822952	71.04254988	6	0.70305243	1	0.00100228	7.46621E-06
92	1	20.94866042	84.86954438	71.74428643	6	0.78228032	1	0.00110018	1.05709E-05
93	1	51.91611832	37.27017531	22.742623	6	0.9043456	1	0.00128922	3.98508E-06
94	1	11.06803275	49.80804788	68.0983517	6	0.70679488	1	0.00126307	6.32067E-06
95	1	12.73268238	26.62086094	49.24266794	6	0.91894736	1	0.00128422	5.19839E-06
96	1	24.66773924	42.03944183	42.42123352	6	0.80023969	1	0.00119476	4.43196E-06
97	1	49.5976614	78.94028704	3.43674378	5	0.52269584	1	0.00084891	8.94217E-06
98	1	54.72861478	38.16807275	43.11063052	6	0.7689358	1	0.00130034	7.78824E-06
99	1	9.88545179	40.99578865	84.54384787	6	0.58647444	1	0.00098586	1.14411E-05
100	1	31.65330159	4.8828949	82.43303107	6	0.86309606	1	0.00134178	1.29234E-05
101	1	67.82692384	8.42560964	12.37855067	7	0.45130199	1	0.00116782	7.90391E-06
102	1	17.87589019	8.92908882	84.20297643	6	0.79895752	1	0.00115829	6.27357E-06
103	1	18.84710821	87.75022996	22.81539778	6	0.57915293	1	0.0009993	1.62095E-05
104	1	70.33296126	54.74518992	83.05840441	6	0.90312944	1	0.00132394	4.78635E-06
105	1	29.5802669	24.40299315	26.90734828	6	0.8864032	1	0.00117809	4.24114E-06
106	1	11.84520131	46.85479977	49.13563024	6	0.85180845	1	0.00114051	5.55201E-06
107	1	68.4383926	16.73080048	25.50917457	5	0.74877838	1	0.00102996	1.08227E-05
108	1	73.15019852	22.49380968	28.89578497	5	0.75910414	1	0.00120967	6.91437E-06
109	1	43.53759406	64.00906242	32.29004537	6	0.51488874	1	0.0010195	7.82985E-06
110	1	71.06425946	40.92437794	60.24622935	6	0.42226927	1	0.00082371	1.00148E-05
111	1	32.98099531	-0.33399439	72.94829762	6	0.59683543	1	0.00123625	1.05869E-05
112	1	0.16045181	69.04039544	23.98157555	6	0.69592564	1	0.00106022	1.59901E-05
113	1	9.00484754	69.13254796	10.18614887	6	0.70045195	1	0.00113918	6.65906E-06
114	1	64.80100584	5.91094646	41.01465704	6	0.88930218	1	0.00130197	1.17196E-05
115	1	41.23563267	66.59426621	51.56724051	6	0.54602256	1	0.00102415	1.90135E-05
116	1	7.80439602	34.57588133	65.37958639	6	0.8988365	1	0.00119501	3.12336E-06
117	1	52.28840865	72.24623027	52.36260628	6	0.92649993	1	0.00142218	4.65062E-06
118	1	70.06661488	1.0865113	17.7173233	6	0.90465098	1	0.00133622	4.89908E-06
119	1	68.00133487	10.59552878	81.85766357	5	0.43144185	1	0.00082571	2.3269E-05
120	1	61.61955582	35.91507517	34.28058573	6	0.81247754	1	0.00112566	5.47497E-06
121	1	85.28505007	56.75658025	37.3345644	6	0.558721	1	0.00081515	1.09146E-05
122	1	6.53440793	61.37736965	29.96571802	4	0.40691514	0	0.00081142	2.38286E-05
123	1	39.63745778	38.92956114	34.42508173	5	0.72995183	1	0.00115812	4.28789E-06
124	1	84.05220012	7.67061775	63.63020796	6	0.79425191	1	0.00114634	4.89054E-06
125	1	10.76539958	59.40585101	47.94255732	5	0.65269687	1	0.00085396	8.77577E-06
126	1	45.27360094	59.50717893	22.29451188	6	0.36133907	1	0.00076886	2.77946E-05
127	1	54.41148176	64.03830302	11.61500406	6	0.81585742	1	0.00124927	4.40502E-06
128	1	61.36050231	56.86274637	16.20075234	5	0.64176523	1	0.00090419	6.77845E-06
129	1	44.93688028	11.4152269	30.28618878	5	0.73031062	1	0.00102998	1.06238E-05
130	1	3.97485653	52.70455658	37.51866826	6	0.79839307	1	0.00103656	1.08488E-05
131	1	7.38531685	25.22627104	63.60334317	6	0.91572443	1	0.00124338	3.03276E-06
132	1	62.66280946	71.51958386	28.56636548	5	0.64520851	1	0.00090999	8.97774E-06
133	1	18.59197719	46.46440594	81.21955416	6	0.64248425	1	0.0011517	5.6762E-06
134	1	38.51619642	17.12487009	41.91517347	7	0.59698371	1	0.00125142	8.82612E-06
135	1	52.5930485	19.73936342	70.25340819	6	0.89506085	1	0.00132746	4.96444E-06
136	1	83.18152723	24.73845114	33.37886451	5	0.60473243	1	0.00103512	7.45293E-06
137	1	25.955569	58.60419217	2.28814201	5	0.4379416	1	0.00094661	1.01341E-05
138	1	71.16560348	73.55540202	37.9862352	6	0.80574717	1	0.001148	5.70524E-06
139	1	34.99434034	67.90146918	73.88605777	6	0.78531713	1	0.0011193	4.0087E-06
140	1	61.13600531	8.9875888	58.62428889	6	0.7227519	1	0.00109223	1.19568E-05
141	1	46.19082822	67.90625017	4.26016024	6	0.86600408	1	0.00136856	6.23429E-06
142	1	37.92003085	22.40989854	59.64665401	6	0.75666266	1	0.0011418	6.17531E-06
143	1	21.59144101	47.21395541	21.34654676	6	0.72835462	1	0.00117612	8.74162E-06
144	1	25.45576745	12.02581125	10.49583539	5	0.84294703	1	0.00108147	5.12938E-06
145	1	75.05339298	19.48417121	57.12545987	5	0.60739442	1	0.00097286	9.6604E-06
146	1	47.97386984	0.57044432	51.16208709	6	0.93465588	1	0.00136082	2.5752E-06
147	1	25.0675029	14.74512637	16.08878981	6	0.88556073	1	0.00127931	2.17489E-06
148	1	40.31528291	18.63313204	5.02005605	5	0.62336684	1	0.00099143	1.29488E-05
149	1	70.59128269	30.14096296	0.61808256	6	0.91616859	1	0.00117605	4.35021E-06
150	1	57.5065584	44.70314865	28.97024272	6	0.90576833	1	0.00131704	3.40712E-06
151	1	52.68516348	19.02876734	82.93897967	4	0.68225473	0	0.00097129	9.20427E-06
152	1	30.21401012	75.97865877	74.56206734	6	0.91549402	1	0.00137205	4.26292E-06
153	1	67.19041794	68.23992876	10.06855162	6	0.60719934	1	0.00098855	1.02369E-05
154	1	67.85251614	31.79173676	34.51620851	6	0.68057244	1	0.00106506	5.76258E-06
155	1	63.97950591	7.95892617	37.10205718	6	0.87711556	1	0.00134064	7.1164E-06
156	1	80.24897408	1.39286191	65.13602308	6	0.82567978	1	0.00114643	3.26686E-06
157	1	75.07862403	45.24837718	31.42381449	6	0.78351815	1	0.00124809	8.68357E-06
158	1	74.86243992	6.48088513	0.4415628	6	0.65070972	1	0.000967	6.74605E-06
159	1	21.18643534	74.15509489	68.34395376	6	0.6991467	1	0.00093258	6.35471E-06
160	1	66.08544713	42.25397695	70.38193551	5	0.71020967	1	0.00116811	7.32104E-06
161	1	40.41375502	69.58723	8.17809135	5	0.75873255	1	0.00096378	8.35988E-06
162	1	17.07806693	78.02405441	26.49502761	6	0.86053078	1	0.0013586	9.9803E-06
163	1	14.69627694	67.16377982	25.08649678	7	0.61173391	1	0.00093667	9.62854E-06
164	1	11.34625712	0.964887	62.35550948	6	0.77983139	1	0.00106238	5.40076E-06
165	1	25.36255262	87.96442235	69.10861689	6	0.72725303	1	0.00103139	1.28756E-05
166	1	79.46185007	55.25858472	27.71636406	6	0.80368448	1	0.00151844	9.80339E-06
167	1	41.09834328	82.54427715	76.73085856	4	0.51958029	0	0.00082982	1.18426E-05
168	1	70.65672351	36.28007578	73.60251262	6	0.81561558	1	0.00138373	9.27374E-06
169	1	78.16934917	74.82382203	-0.13971655	4	0.5008333	0	0.00082738	1.22455E-05
170	1	21.80755486	8.40080984	57.68799531	6	0.52622093	1	0.00110746	1.02908E-05
171	1	12.96076597	13.1823391	20.35286321	6	0.7067974	1	0.00103893	3.37439E-06
172	1	63.39014756	50.62728629	24.42709099	6	0.86168523	1	0.00141946	4.54932E-06
173	1	62.19967932	13.32608814	66.3454559	6	0.60299866	1	0.00126047	7.51904E-06
174	1	48.95511614	3.45379751	54.22308068	6	0.88429276	1	0.00140531	2.80291E-06
175	1	64.86106044	47.97966091	72.1054393	6	0.65205189	1	0.00126848	6.26897E-06
176	1	29.46035239	63.52445454	68.53078644	5	0.57038222	1	0.00096203	1.21032E-05
177	1	24.5876327	38.47365168	44.10530516	6	0.83957878	1	0.0012374	3.73535E-06
178	1	14.97934655	52.15660522	7.52450767	6	0.87653	1	0.00133398	5.1495E-06
179	1	45.24329555	37.73569469	39.97266996	5	0.81905932	1	0.00118052	3.57823E-06
180	1	63.79769085	24.80041886	61.57556672	5	0.43887984	1	0.00093539	1.29019E-05
181	1	1.94420281	89.60244894	72.15586368	6	0.43015077	1	0.00086574	1.48966E-05
182	1	10.34139276	6.59539665	4.63755447	6	0.63456791	1	0.00108202	3.84717E-06
183	1	48.94401881	71.25638141	30.75890399	6	0.87836247	1	0.00137256	5.19943E-06
184	1	32.786062	81.76593792	12.37134919	6	0.91914939	1	0.00145207	4.04144E-06
185	1	16.00558186	72.49425629	21.0888795	6	0.66865	1	0.00117015	1.09403E-05
186	1	69.28419725	53.27935204	53.19243287	6	0.71375425	1	0.00097112	7.81144E-06
187	1	1.22269626	44.21284642	36.16631912	6	0.76891787	1	0.00110067	5.18206E-06
188	1	60.45087432	84.11099501	50.33118977	4	0.456567	0	0.00103294	8.82089E-06
189	1	80.77132225	54.27677628	31.55365862	7	0.41482127	1	0.00112548	1.29877E-05
190	1	16.2915168	40.52939592	32.73457277	6	0.6898901	1	0.00102311	9.1739E-06
191	1	19.16457221	36.49808422	55.00349851	6	0.60466015	1	0.00125652	8.47173E-06
192	1	20.74585699	63.86801272	79.18071215	6	0.52613124	1	0.00107529	1.42757E-05
193	1	45.43705369	40.68962846	27.07809266	6	0.87526024	1	0.00113761	6.9922E-06
194	1	19.7012693	15.07847719	23.12792437	6	0.81725226	1	0.00125938	2.54763E-06
195	1	55.62490818	14.98940695	60.58057892	5	0.56421555	1	0.00107413	1.50024E-05
196	1	46.36227863	87.8351663	41.1272692	6	0.88891495	1	0.00137662	6.20744E-06
197	1	29.8825757	47.37442107	61.12827969	6	0.7938468	1	0.00108965	7.57089E-06
198	1	26.29402861	38.18763031	62.49868717	6	0.90306871	1	0.00123989	4.03975E-06
199	1	7.60312208	15.05544373	16.34711188	6	0.83013684	1	0.00104439	6.84941E-06
200	1	45.05428166	19.48136854	30.52742864	5	0.55761404	1	0.00079944	2.98233E-05
201	1	48.23356573	88.09077106	8.21751511	5	0.44495209	1	0.00093313	8.60686E-06
202	1	17.63925748	5.47980198	35.98287712	7	0.41988304	1	0.00101949	5.28763E-06
203	1	83.67828523	52.60583796	41.06585845	5	0.65444026	1	0.00085292	7.98356E-06
204	1	7.59473467	62.61949392	23.43062114	7	0.52071611	1	0.00099532	9.64896E-06
205	1	69.19087205	59.38799513	29.43492683	6	0.53609786	1	0.00102087	9.97319E-06
206	1	78.24448048	47.36768872	10.07245666	6	0.8268265	1	0.00130311	6.46604E-06
207	1	57.70933732	41.23558881	5.78797558	4	0.46008503	0	0.0011016	3.00764E-05
208	1	41.87663147	6.36932213	76.48835344	6	0.76822229	1	0.00105828	1.86858E-05
209	1	23.16416796	77.6175601	55.23874889	6	0.34389318	1	0.0010026	1.24028E-05
210	1	50.99443818	71.59714072	41.7858866	6	0.92414946	1	0.00139228	5.02349E-06
211	1	18.88096863	1.67987558	69.48101514	6	0.86920071	1	0.00134926	7.58703E-06
212	1	19.59782256	6.88134956	77.26376484	6	0.88864152	1	0.00137302	4.60931E-06
213	1	58.94691381	42.77423939	54.49242008	6	0.64634233	1	0.00118873	1.05946E-05
214	1	66.18021675	74.2210821	10.66851402	6	0.49086894	1	0.00094014	6.95227E-06
215	1	14.96930731	9.90697173	19.35382917	6	0.71247425	1	0.00117311	3.46808E-06
216	1	83.51517467	50.34572706	2.04421803	6	0.62465847	1	0.00096391	7.3186E-06
217	1	60.00663373	78.50504303	56.21556421	6	0.42543963	1	0.00089668	1.34263E-05
218	1	14.04448116	84.0775721	8.76805126	4	0.7356145	0	0.00099495	7.58684E-06
219	1	64.87986858	11.22845601	64.09325465	5	0.75939106	1	0.00109981	9.55915E-06
220	1	82.41874722	36.49837753	46.31543841	6	0.59671574	1	0.00111632	4.89664E-06
221	1	59.5902247	57.12131382	48.86340024	5	0.43982795	1	0.00105801	1.23816E-05
222	1	43.1965185	23.19473854	82.53622805	6	0.37375379	1	0.00091097	2.07244E-05
223	1	33.97656375	48.08559542	39.63971877	6	0.9207224	1	0.00133165	2.53542E-06
224	1	31.68537242	23.25037987	82.87769583	6	0.66880677	1	0.00099374	2.97776E-05
225	1	82.50455988	31.64925309	31.64473718	6	0.69762659	1	0.00129552	1.21596E-05
226	1	54.14033945	52.51418926	77.21902335	5	0.41705434	1	0.00090414	1.67114E-05
227	1	77.04058055	79.93400701	39.38142131	6	0.82767951	1	0.00108481	3.86696E-06
228	1	77.91991863	72.46522501	51.72040958	6	0.94327551	1	0.00132449	2.01127E-06
229	1	72.52375582	14.13806162	41.59076376	6	0.88684642	1	0.00118796	4.57402E-06
230	1	75.09254231	43.10724671	71.95175635	6	0.68737504	1	0.00112605	9.97951E-06
231	1	65.04191683	0.48875139	25.69212566	6	0.90600399	1	0.00135315	5.75485E-06
232	1	61.37208618	77.39603098	70.70397402	5	0.41078397	1	0.00083515	1.29592E-05
233	1	47.58113109	51.65897943	73.08593171	6	0.83242663	1	0.00122628	4.66056E-06
234	1	76.08231707	88.64327563	56.01759894	6	0.67526979	1	0.00101133	1.64848E-05
235	1	30.07917292	36.12311957	78.38662931	6	0.79836632	1	0.00133178	5.19322E-06
236	1	49.36732439	1.4124897	29.37567714	6	0.73507284	1	0.00111382	8.15307E-06
237	1	32.17235416	38.14229056	66.56642375	6	0.85741784	1	0.00143045	5.65703E-06
238	1	66.6437834	30.28750218	75.08639343	6	0.81316802	1	0.00120298	4.98326E-06
239	1	76.86840588	14.02360373	35.66090305	6	0.87708598	1	0.00111385	4.42262E-06
240	1	67.91269407	8.54111649	50.04932962	4	0.33747062	0	0.00121275	1.61909E-05
241	1	67.13126249	8.85174084	42.18136614	5	0.77478057	1	0.0010806	9.04895E-06
242	1	78.45500598	-0.13262319	76.3338845	5	0.49938623	1	0.00079977	1.38406E-05
243	1	41.07645615	77.51086648	9.43307721	6	0.91774635	1	0.00133185	5.56609E-06
244	1	10.71644906	36.29069547	41.76786684	6	0.52518808	1	0.00099451	6.57548E-06
245	1	53.24687136	65.39516412	62.68235156	6	0.59257602	1	0.0011726	1.05658E-05
246	1	75.14865892	33.97316711	7.47714245	5	0.47659524	1	0.00073737	4.3953E-05
247	1	43.50724989	49.3324922	76.76936469	5	0.67652624	1	0.00097804	7.27749E-06
248	1	77.74039937	27.32012017	62.22061379	6	0.84360811	1	0.00117287	4.29003E-06
249	1	56.65947348	87.69518503	25.85898454	6	0.5449367	1	0.0010792	1.80846E-05
250	1	76.67039264	68.65866671	35.9550812	6	0.78075525	1	0.00117754	5.12337E-06
251	1	33.27996556	87.6563034	84.22478564	6	0.44916221	1	0.00114413	9.82519E-06
252	1	82.0884105	15.21378806	52.84363776	5	0.20046918	0	0.00090877	1.21724E-05
253	1	11.41048473	66.49122818	77.05502323	7	0.48161467	1	0.00101105	6.45926E-06
254	1	14.4180833	37.89621369	82.0070069	6	0.84615518	1	0.00126457	4.36693E-06
255	1	83.65616054	12.59698896	39.1808811	5	0.43932337	1	0.00110795	1.12213E-05
256	1	68.96397819	43.97969984	17.18002761	6	0.90109509	1	0.00107061	5.95852E-06
257	1	56.14137396	12.72902565	12.41775706	6	0.83607145	1	0.00111836	6.95176E-06
258	1	79.69038569	42.0651843	81.20611428	5	0.64829791	1	0.0009558	7.85042E-06
259	1	33.3473152	86.04068162	70.34009192	6	0.85437416	1	0.00135681	5.51604E-06
260	1	70.84487803	10.58024211	67.48196748	5	0.49536861	1	0.00116554	1.38139E-05
261	1	75.61854603	32.72804107	11.4367931	6	0.78352498	1	0.00124442	9.08115E-06
262	1	61.6136061	17.74648904	11.13308356	6	0.71532348	1	0.00118002	5.00112E-06
263	1	18.60639409	73.8835679	25.80929802	5	0.5493284	1	0.00105772	1.35486E-05
264	1	83.72260237	87.04496704	0.83990325	6	0.89895066	1	0.00143394	6.62227E-06
265	1	6.53439125	52.14578175	52.83269549	6	0.67876579	1	0.00093689	2.61537E-05
266	1	47.02028307	27.11033664	72.13332351	5	0.6597128	1	0.00112646	6.74989E-06
267	1	71.49699994	24.99546688	55.57422351	4	0.8508464	0	0.00095515	2.09669E-05
268	1	73.99408729	55.53857298	49.84097038	6	0.87947474	1	0.00134045	6.35713E-06
269	1	36.65268688	11.83802143	3.70685232	5	0.6294379	1	0.0008489	7.92514E-05
270	1	82.71439492	37.21181084	83.2495349	5	0.33621342	1	0.00059634	3.7922E-05
271	1	77.83964001	13.94811765	8.18436533	5	0.78393998	1	0.0009702	1.45273E-05
272	1	51.33136231	87.81166059	1.38025556	6	0.73094537	1	0.00106429	9.6621E-06
273	1	57.45330483	70.62974398	17.72979124	6	0.83971366	1	0.0013668	3.42686E-06
274	1	46.97497768	47.29614605	53.72572794	5	0.63108044	1	0.00094093	7.34064E-06
275	1	23.70168402	15.58696671	12.27978374	6	0.92741776	1	0.00126518	3.05173E-06
276	1	41.35583085	66.21291449	23.55588336	6	0.6605362	1	0.00099066	7.71885E-06
277	1	45.21690253	78.06341684	3.46881163	6	0.58128533	1	0.00092638	9.33805E-06
278	1	65.77652173	16.86675164	48.43015171	5	0.57601166	1	0.0008539	8.16365E-06
279	1	12.42323091	1.84493666	42.069695	6	0.69207718	1	0.00107216	5.62256E-06
280	1	23.79909678	44.71988991	30.3269582	6	0.8926745	1	0.00132694	5.00172E-06
281	1	65.08778075	31.2649948	25.64455526	6	0.82001685	1	0.0011996	3.11615E-06
282	1	72.69171365	7.97342341	55.8170226	5	0.78581431	1	0.00105069	7.63655E-06
283	1	10.05071004	7.3031639	46.61113827	6	0.86855852	1	0.00127349	4.77128E-06
284	1	72.73456881	0.44755293	63.96597653	6	0.57848842	1	0.00096938	6.00173E-06
285	1	26.5335106	78.21436921	50.38973469	5	0.8636542	1	0.00112541	1.12054E-05
286	1	14.92222478	29.51813768	74.57113582	6	0.88916757	1	0.00130761	2.32874E-06
287	1	81.01704523	29.80864822	8.44760448	6	0.71437756	1	0.00120629	1.06384E-05
288	1	62.30574651	80.22237366	77.24211306	6	0.5881024	1	0.00110614	7.33705E-06
289	1	36.98716846	25.48199344	83.34681387	6	0.45738537	1	0.00106345	2.57194E-05
290	1	72.16331446	4.64865821	30.66078841	7	0.78835209	1	0.00127164	6.90136E-06
291	1	59.46478152	26.34959427	26.31595525	6	0.89189354	1	0.00137287	3.27446E-06
292	1	26.51211631	66.35184648	80.03001168	6	0.53045676	1	0.00135335	7.06982E-06
293	1	71.89970839	3.10164531	76.9119771	6	0.64687435	1	0.0009733	1.44016E-05
294	1	19.33617519	50.82715141	1.73593117	6	0.68051662	1	0.00116151	1.60165E-05
295	1	56.35021216	-0.37283406	58.94752092	5	0.60463736	1	0.00106003	7.35088E-06
296	1	1.14224758	26.52853479	69.39629827	6	0.91273821	1	0.00124597	1.97639E-06
297	1	23.98341173	16.5978575	4.61979628	5	0.69817914	1	0.00099969	8.80372E-06
298	1	18.26612953	38.68434525	16.31679932	5	0.38941503	1	0.00098905	2.18355E-05
299	1	68.40284296	22.84793364	84.05428007	6	0.92898062	1	0.00118456	4.79609E-06
300	1	15.33263604	31.75291912	25.11044612	4	0.29396529	0	0.00112373	1.30362E-05
301	1	58.29719763	16.0776324	6.1089356	6	0.7063238	1	0.00091742	6.65096E-06
302	1	81.7929274	53.93111835	48.18700478	6	0.69959848	1	0.00128472	1.12215E-05
303	1	20.91398027	36.86624162	76.78141093	6	0.88450711	1	0.00128385	3.18662E-06
304	1	71.26533366	6.97697077	27.0425527	6	0.78439464	1	0.00140051	4.88816E-06
305	1	3.13241611	44.36611305	56.38177397	7	0.5832678	1	0.001221	1.00013E-05
306	1	20.44091522	17.89286063	30.24768009	4	0.84649564	0	0.00106463	1.20602E-05
307	1	20.76255399	15.46725234	58.53869979	6	0.69556243	1	0.00116196	7.23482E-06
308	1	0.84542677	83.13272037	-0.53025038	5	0.70883774	1	0.00101143	5.06823E-06
309	1	79.52462469	51.90128458	77.71006302	6	0.7584593	1	0.00137636	7.48437E-06
310	1	32.21575798	81.35908932	24.46900851	6	0.68691889	1	0.00121573	7.57249E-06
311	1	56.64122953	43.52632656	47.39837611	6	0.85567041	1	0.0013296	7.52197E-06
312	1	50.74994624	33.23437474	23.87479859	6	0.90927396	1	0.00127354	4.14164E-06
313	1	14.32375797	24.45445913	18.00359637	6	0.80331986	1	0.00132123	3.82156E-06
314	1	44.93881377	53.92555414	64.21010417	6	0.59184276	1	0.00094547	9.74593E-06
315	1	45.45866516	46.9835407	-0.16488088	6	0.75036512	1	0.00123605	8.27492E-06
316	1	25.98605638	52.87481796	68.59045204	6	0.7393235	1	0.00121074	1.73982E-05
317	1	20.1931563	67.3638211	61.37848613	6	0.86294907	1	0.00122783	5.26018E-06
318	1	68.26653025	60.22577807	51.59430962	6	0.77346213	1	0.00127258	5.93245E-06
319	1	65.85109608	14.30228249	67.26755231	5	0.24542926	0	0.00134287	4.32809E-06
320	1	24.84266675	56.1280773	5.33052827	5	0.39590974	1	0.00100714	4.0664E-05
321	1	7.38948219	77.60223861	64.83560721	5	0.303534	1	0.00124672	5.78225E-06
322	1	58.71245827	23.22219314	23.55539827	6	0.8811018	1	0.00128963	3.81918E-06
323	1	72.28254546	57.21286279	80.44759725	6	0.92879679	1	0.00133996	4.66553E-06
324	1	29.26207268	74.83247566	56.09647885	6	0.91194947	1	0.00139375	6.93962E-06
325	1	30.11536575	73.73732147	52.27335343	6	0.88993716	1	0.00128608	7.6018E-06
326	1	51.02594373	2.12954081	64.94813314	6	0.79910751	1	0.00132075	4.01654E-06
327	1	14.87869869	6.65717176	26.23418666	6	0.27428529	1	0.00154865	3.78678E-06
328	1	29.13022165	57.40164358	74.66411993	6	0.62125535	1	0.00093211	4.83015E-05
329	1	15.01972556	86.33189685	77.55302441	5	0.63141715	1	0.00096931	5.93005E-06
330	1	18.54651931	52.23068926	8.49151789	5	0.59705228	1	0.00099975	6.96469E-06
331	1	36.7432807	12.72676378	-0.073445	5	0.47228842	1	0.00085516	3.32957E-05
332	1	42.92744468	86.69471657	76.66139299	6	0.72412423	1	0.00109621	1.55294E-05
333	1	4.39723788	4.90646836	41.64709973	6	0.50218039	1	0.00094437	1.25427E-05
334	1	67.06639609	53.26994185	61.58599978	6	0.68782055	1	0.00108526	1.04222E-05
335	1	37.86222478	49.84439503	23.78577421	5	0.45289295	1	0.00054832	1.23061E-05
336	1	56.62430757	79.35433976	40.3902272	5	0.65130093	1	0.0009322	1.24389E-05
337	1	80.73024166	88.33806848	14.81440947	6	0.57953499	1	0.00106539	1.61568E-05
338	1	8.10228229	75.14625777	67.00379168	5	0.40114534	1	0.00083003	1.30442E-05
339	1	24.09899722	66.61057228	43.45475049	4	0.45639906	0	0.00084711	2.44765E-05
340	1	79.34798068	7.67904123	47.59647613	5	0.65752223	1	0.00118423	7.18334E-06
341	1	61.58734742	27.89435186	82.83693722	6	0.91520335	1	0.00126657	3.03717E-06
342	1	54.23701247	1.02079776	41.04625159	6	0.49486571	1	0.00096547	8.32283E-06
343	1	9.87459477	49.8147084	3.09076282	6	0.83850889	1	0.00129938	3.6827E-06
344	1	11.63647754	4.75784191	54.14817684	6	0.61326728	1	0.00093033	9.75536E-06
345	1	10.16643675	28.414826	22.68332426	6	0.85665564	1	0.00123354	4.77025E-06
346	1	34.18728764	24.58069193	60.12693421	6	0.57703794	1	0.00105206	8.04502E-06
347	1	7.22005912	42.58318259	36.11433059	6	0.88344258	1	0.00113951	7.13964E-06
348	1	15.41883658	79.78087636	47.56598133	6	0.77829798	1	0.00112438	5.6429E-06
349	1	76.3027733	39.3518094	70.06505968	6	0.82478208	1	0.00132785	7.54915E-06
350	1	82.17822413	52.1140161	58.01783122	6	0.46648892	1	0.00083003	1.49875E-05
351	1	71.96677779	44.11290434	26.37490392	6	0.86417946	1	0.00132645	4.08463E-06
352	1	39.07134321	77.97208338	65.59876302	6	0.93840121	1	0.00131098	3.31684E-06
353	1	76.32081925	37.72705496	6.39919896	5	0.64312521	1	0.00100606	1.0474E-05
354	1	85.23002082	14.29335638	63.21534285	6	0.54342999	1	0.00093223	1.70257E-05
355	1	69.89792582	82.92053823	69.98132125	5	0.72609116	1	0.00096481	6.651E-06
356	1	79.54359467	79.49606862	42.66612909	6	0.80743008	1	0.00113365	3.19514E-06
357	1	77.88126175	45.43841367	36.79534508	6	0.39459078	1	0.00075939	3.45622E-05
358	1	28.30568299	80.16274173	80.00905214	6	0.45157764	1	0.0007355	7.71128E-06
359	1	45.84886855	61.45309652	18.48068451	6	0.81299834	1	0.00133366	5.16993E-06
360	1	53.69059888	88.25406204	22.2386512	4	0.30996447	0	0.00075942	1.80279E-05
361	1	12.90209282	87.13176483	81.02798702	6	0.78956441	1	0.00123893	4.81042E-06
362	1	62.50559443	53.19754169	4.10085844	6	0.66450016	1	0.00116048	8.38993E-06
363	1	68.99628094	80.66139307	76.68255671	6	0.40303126	1	0.00077771	8.49263E-06
364	1	4.8163777	35.50439269	68.02204989	6	0.83538592	1	0.00127378	2.76795E-06
365	1	62.41737493	60.64694026	37.20350303	6	0.75561114	1	0.00105262	5.44236E-06
366	1	22.45301946	88.65749119	72.54222582	6	0.89085455	1	0.00126832	4.322E-06
367	1	12.65911159	14.6535814	71.66223003	6	0.71535998	1	0.00127487	6.50867E-06
368	1	84.77429289	56.50009992	61.63313175	4	0.77844576	0	0.00104555	1.25358E-05
369	1	12.09376185	71.30732035	72.24347094	5	0.49831394	1	0.0007583	2.22898E-05
370	1	7.71427843	23.19856943	57.27043935	6	0.33548785	1	0.00070935	7.86917E-06
371	1	30.02370868	23.78353106	46.19697714	6	0.79732819	1	0.00119296	4.5127E-06
372	1	32.24466798	68.17897585	70.85497472	6	0.81546575	1	0.00113086	6.21699E-06
373	1	18.16402163	88.40265601	71.92636711	6	0.82080885	1	0.00114085	5.10501E-06