ITEM: TIMESTEP
0
ITEM: NUMBER OF ATOMS
21600
ITEM: BOX BOUNDS pp pp pp
0.0 85.62808529
0.0 89.88351823
0.0 84.84255000
ITEM: ATOMS id type x y z CN O octa G RVDOS voro
1	1	78.30320052	1.93253577	68.72254622	6	0.88618186	1	0.00127229	5.46E-06	2.64E+01
2	1	19.27949513	37.41348494	21.39718251	5.985075	0.80370795	1	0.00112616	9.37E-06	2.75E+01
3	1	55.41996688	59.90614113	37.05100347	6	0.86676388	1	0.00137061	5.79E-06	2.66E+01
4	1	49.47928502	34.465506	39.71008872	5.985075	0.83433383	1	0.00101549	4.10E-06	2.87E+01
5	1	84.06182682	0.45098772	78.70061345	5.825871	0.43583322	1	0.00078499	6.54E-06	3.70E+01
6	1	77.67933276	58.50720588	27.47365938	5.975124	0.77881747	1	0.00125815	9.00E-06	2.64E+01
7	1	25.41272029	28.53214718	31.15589682	5.049751	0.61606093	1	0.00105735	5.24E-06	3.00E+01
8	1	85.14281761	77.99523413	18.69748508	6	0.88757983	1	0.00118495	6.30E-06	2.54E+01
9	1	19.45962677	10.69510267	52.79627663	5.930348	0.78961316	1	0.00115137	1.21E-05	2.80E+01
10	1	50.38849904	6.4143692	51.36476615	5.995025	0.91663697	1	0.0012505	3.25E-06	2.67E+01
11	1	58.8193241	66.85672144	19.50396268	5.985075	0.82555793	1	0.00126591	7.50E-06	2.67E+01
12	1	37.92693893	19.52817562	27.65466884	6	0.90571817	1	0.00129553	4.26E-06	2.62E+01
13	1	7.43577927	39.62850677	59.76301088	6	0.89940779	1	0.00127798	4.10E-06	2.74E+01
14	1	10.20240368	57.97780806	7.99592509	6	0.87449503	1	0.00131621	3.72E-06	2.67E+01
15	1	50.09580179	6.31963381	57.36448406	5.995025	0.79320031	1	0.00118454	4.03E-06	2.68E+01
16	1	47.87316561	53.39158959	69.40763077	5.78607	0.59493717	1	0.00094575	5.07E-06	2.86E+01
17	1	82.60169261	80.05327908	79.44455459	5.99005	0.8686667	1	0.00121542	6.42E-06	2.68E+01
18	1	65.48381449	81.36523114	27.38469369	5.905473	0.77062087	1	0.00118636	6.19E-06	2.74E+01
19	1	36.63726852	76.12939374	14.87600585	6	0.85269609	1	0.00128484	3.62E-06	2.69E+01
20	1	62.57259523	10.35621195	32.29272105	4	0.58882811	0	0.00089694	7.12E-05	3.02E+01
21	1	56.15447009	28.29753782	28.58099469	6	0.88631695	1	0.00120764	2.68E-06	2.71E+01
22	1	81.77149945	58.39142685	72.43484214	5.248756	0.45598292	1	0.00108441	3.25E-06	2.82E+01
23	1	26.84643779	73.35053144	33.11285431	4.572139	0.73791764	0	0.0009565	6.93E-06	2.90E+01
24	1	83.13972547	31.26320287	19.93906954	6	0.8622343	1	0.00131741	7.05E-06	2.67E+01
25	1	51.16498225	72.64921468	56.08574587	5.766169	0.77758977	1	0.00120169	1.25E-05	2.72E+01
26	1	8.58335882	51.3193884	65.28217686	5.049751	0.72827987	1	0.00105118	1.62E-05	3.12E+01
27	1	67.81139618	12.62489753	16.44769721	4.557214	0.5739533	1	0.0009123	5.96E-06	2.97E+01
28	1	64.1551395	85.17816177	69.51086455	5.99005	0.87508037	1	0.00116283	7.34E-06	2.72E+01
29	1	33.51930145	35.51234963	20.76805504	5.054726	0.70964175	1	0.00101746	7.25E-06	2.87E+01
30	1	19.41482217	21.36429814	48.6385125	5.920398	0.7535311	1	0.00108129	7.59E-06	2.87E+01
31	1	26.83991072	18.37771995	82.59980605	5.995025	0.77107007	1	0.00127807	8.00E-06	2.63E+01
32	1	2.68369491	78.22153793	30.15381483	6	0.92927117	1	0.00128945	5.91E-06	2.61E+01
33	1	82.14732251	82.97912701	61.81572324	5.995025	0.89357312	1	0.00136563	5.37E-06	2.65E+01
34	1	29.80408702	0.43230972	81.49448751	5.975124	0.87892401	1	0.00125075	4.49E-06	2.50E+01
35	1	32.39499783	3.36293259	8.25039819	6	0.63694612	1	0.00125329	1.04E-05	2.65E+01
36	1	16.41656517	1.47842435	23.63305628	5.726368	0.82318064	1	0.00119181	5.93E-06	3.18E+01
37	1	80.83642571	86.7743779	55.97986079	6	0.89519939	1	0.00130637	4.05E-06	2.64E+01
38	1	38.28876583	20.84177865	55.28516385	5.995025	0.92280265	1	0.00129685	3.26E-06	2.64E+01
39	1	7.92788047	65.72766092	27.913764	5	0.45052632	1	0.00101672	5.20E-06	2.78E+01
40	1	80.33788533	39.76590162	60.96971153	5.985075	0.8172735	1	0.00124589	4.43E-06	2.62E+01
41	1	15.54341884	61.82001044	55.47653831	6	0.7253175	1	0.00108557	4.70E-06	2.68E+01
42	1	5.78879531	88.63955838	48.66970961	5.995025	0.82847598	1	0.00114761	5.57E-06	2.68E+01
43	1	54.23443884	21.53247256	73.06024599	6	0.87663959	1	0.00133864	4.33E-06	2.65E+01
44	1	75.08828551	20.07308419	81.17415724	5.995025	0.81804328	1	0.00111152	5.81E-06	2.80E+01
45	1	26.16551173	2.88516311	77.55568789	6	0.83038399	1	0.00123624	5.19E-06	2.80E+01
46	1	68.0184437	56.65089218	47.60038256	5.20398	0.66168457	1	0.00092086	1.20E-05	3.06E+01
47	1	3.26639097	2.74556218	54.36248619	5.9801	0.81081295	1	0.00124836	5.22E-06	2.75E+01
48	1	23.46617329	47.02719421	54.21807783	6.004975	0.38891061	1	0.00078935	2.62E-05	2.62E+01
49	1	64.42179756	78.33954155	44.4191766	5.781095	0.64705716	1	0.00098115	9.03E-06	2.93E+01
50	1	26.6444092	2.09922543	29.27512429	5.79602	0.7210088	1	0.00115664	5.21E-06	2.72E+01
51	1	60.46502455	39.3675907	66.29172199	5.895522	0.73908433	1	0.00114886	6.72E-06	2.77E+01
52	1	32.00280523	47.85042966	57.93115128	6	0.83282555	1	0.00132021	6.18E-06	2.61E+01
53	1	34.29440609	26.29635733	45.89947793	6	0.91967846	1	0.00129265	6.00E-06	2.62E+01
54	1	77.74903666	24.23365739	16.72314042	6	0.77298274	1	0.0012633	5.99E-06	2.59E+01
55	1	69.97227271	53.58786538	46.78406617	5.149254	0.60766227	1	0.00093963	2.12E-05	3.14E+01
56	1	65.35516396	88.68352548	29.39425781	5.995025	0.88840779	1	0.00136961	6.40E-06	2.44E+01
57	1	55.08493658	47.46075858	41.14138835	5.208955	0.55293136	1	0.00093412	7.64E-06	2.79E+01
58	1	54.79485798	11.43682975	60.82263106	5.940299	0.67496421	1	0.00117527	4.18E-06	2.71E+01
59	1	31.49256669	40.18382011	6.60124247	4.577114	0.5346652	1	0.00074541	5.00E-05	3.07E+01
60	1	67.18914835	27.28426242	4.76978794	6	0.91889605	1	0.00139347	5.41E-06	2.57E+01
61	1	6.65810839	88.0992111	56.21739265	5.975124	0.86664863	1	0.00113911	6.19E-06	3.27E+01
62	1	27.64159969	11.89933746	6.97209561	5.920398	0.71075004	1	0.00099764	5.54E-06	2.83E+01
63	1	48.34368976	18.73422678	14.29280302	5.79602	0.72365681	1	0.00097567	1.19E-05	2.80E+01
64	1	74.21787812	77.52904105	72.38119707	6	0.85487134	1	0.00138117	1.07E-05	2.72E+01
65	1	53.87410781	89.00665279	63.27897056	5.139303	0.50033007	1	0.00086946	2.09E-05	3.16E+01
66	1	17.79120014	50.40781467	66.57840286	6	0.84039852	1	0.0012354	5.73E-06	2.63E+01
67	1	76.2408526	32.70017318	71.36136526	6	0.88486941	1	0.001278	5.66E-06	2.68E+01
68	1	41.82420195	4.07610628	13.0729511	4.930348	0.54992159	1	0.00077086	4.64E-05	2.99E+01
69	1	72.69314924	49.50639981	41.19869672	5.825871	0.68517862	1	0.00126022	9.47E-06	2.60E+01
70	1	13.46757527	33.39384059	41.08994087	5.920398	0.77862995	1	0.0012524	5.78E-06	2.85E+01
71	1	24.63724056	42.045539	62.93523567	6	0.87654941	1	0.00119286	4.52E-06	2.64E+01
72	1	22.13642808	54.27876481	41.73793631	6	0.85002839	1	0.00129176	4.25E-06	2.68E+01
73	1	30.38768513	68.8034142	62.82746504	5.99005	0.78417877	1	0.00111392	3.75E-06	2.83E+01
74	1	22.83496654	52.40617811	19.0498437	5.995025	0.85770455	1	0.00122153	9.14E-06	2.70E+01
75	1	35.20841403	9.44724115	20.8415512	6.383085	0.75654241	1	0.0011155	4.14E-06	2.76E+01
76	1	37.10441049	30.87553251	15.6449464	6.840796	0.50025783	1	0.00112654	6.14E-06	2.80E+01
77	1	36.11986796	33.27746468	36.34982352	5.995025	0.88730737	1	0.00129396	6.36E-06	2.84E+01
78	1	80.01368581	61.61643966	81.64439068	5.930348	0.44220465	1	0.00085665	6.42E-06	2.77E+01
79	1	43.22365348	0.57825138	0.33923623	5.402985	0.53562774	1	0.00107689	1.27E-05	2.55E+01
80	1	50.46439413	52.49650274	22.84070678	4.044776	0.3705006	0	0.00117182	5.88E-06	2.86E+01
81	1	54.47641517	77.80723592	15.15800023	5.995025	0.77383304	1	0.00119621	5.01E-06	2.65E+01
82	1	48.8041438	73.09114361	15.15083707	5.985075	0.85891983	1	0.00111687	4.34E-06	2.79E+01
83	1	5.68004848	21.67307075	65.50047015	6	0.896693	1	0.00115663	5.12E-06	2.77E+01
84	1	58.05314322	85.572306	77.10564751	5.58209	0.76990922	1	0.00103213	1.03E-05	2.77E+01
85	1	73.20561982	55.9817667	0.19268879	6	0.89325357	1	0.0013623	6.06E-06	2.44E+01
86	1	79.8289061	1.11101136	24.70127552	5.034826	0.63431436	1	0.00097004	8.69E-06	3.06E+01
87	1	6.3688122	70.94231542	45.47430675	6	0.91375786	1	0.00130318	1.95E-06	2.64E+01
88	1	53.7881685	78.77559479	56.27707521	6.039801	0.60469246	1	0.00124668	1.52E-05	2.49E+01
89	1	48.72777623	57.05779269	80.84582497	6	0.75444886	1	0.00135716	7.28E-06	2.56E+01
90	1	35.46468041	12.06266735	31.62803641	5.960199	0.52955248	1	0.000939	4.77E-06	2.85E+01
91	1	5.97358926	58.34981788	70.88712095	5.885572	0.86539837	1	0.00114448	7.66E-06	2.90E+01
92	1	20.56308626	84.92202652	71.50221431	4.791045	0.5335469	1	0.00092399	1.16E-05	2.88E+01
93	1	52.10915967	37.38472609	22.84845849	6	0.92346726	1	0.00131045	3.38E-06	2.65E+01
94	1	10.94553999	49.4442198	68.49542627	5.58209	0.62509974	1	0.00122787	5.90E-06	2.99E+01
95	1	12.33076493	26.47524329	49.28913538	6	0.86091857	1	0.00121059	4.64E-06	2.83E+01
96	1	24.45034496	41.98954684	42.4281304	5.985075	0.84122887	1	0.00127692	4.12E-06	2.63E+01
97	1	43.17658911	82.49727216	3.31130162	4.995025	0.56862011	1	0.00070377	6.72E-06	3.07E+01
98	1	53.77912474	42.20311066	39.07302652	5.059701	0.64305122	1	0.00096351	3.16E-05	2.90E+01
99	1	8.99110319	38.12960525	78.31489646	5.995025	0.73025974	1	0.00123474	6.75E-06	2.64E+01
100	1	31.65320401	4.00543107	82.1975787	6	0.92091505	1	0.00126413	4.92E-06	2.62E+01
101	1	67.3198141	8.75449066	13.25104807	5.616915	0.41271334	1	0.00067265	8.33E-06	2.93E+01
102	1	17.99514799	8.24491134	83.60148307	6	0.8635244	1	0.00128375	2.62E-06	2.65E+01
103	1	19.65524195	88.96149063	22.67201426	4.18408	0.59026872	0	0.000892	2.09E-05	2.78E+01
104	1	70.51682895	55.01654746	82.19845624	6	0.93071128	1	0.0013748	7.21E-06	2.66E+01
105	1	29.82602781	24.43677941	26.35759198	6.024876	0.88830627	1	0.00116337	3.70E-06	2.82E+01
106	1	11.6628253	46.68939096	49.31282242	5.452736	0.76902831	1	0.00109228	6.13E-06	2.84E+01
107	1	69.40896732	16.86314918	25.1946872	5.00995	0.51870742	1	0.00086047	1.05E-05	2.91E+01
108	1	73.46501576	22.42984903	28.9122941	5.104478	0.84299268	1	0.00104412	5.57E-06	2.76E+01
109	1	46.30702592	65.97621339	34.00231575	6	0.87973881	1	0.00133389	6.27E-06	2.59E+01
110	1	74.51539631	41.67570001	61.23470021	5.119403	0.48950847	1	0.00085867	1.19E-05	2.80E+01
111	1	31.15956943	88.48481372	74.18006066	5.781095	0.59289471	1	0.00095266	8.15E-06	2.59E+01
112	1	84.79154991	67.55338014	22.88053227	4.109453	0.48107415	1	0.00087905	1.66E-05	3.01E+01
113	1	8.62323002	69.03225782	10.39768708	4.930348	0.52179835	1	0.00077525	8.58E-06	2.90E+01
114	1	64.59705822	6.43757977	41.06773024	6	0.832845	1	0.00146493	1.59E-05	2.51E+01
115	1	40.53735172	66.65228691	51.45955691	5.636816	0.42590682	1	0.00102794	8.59E-06	2.60E+01
116	1	7.93871454	34.38452753	65.27129696	6	0.88591237	1	0.00121425	3.99E-06	2.69E+01
117	1	53.88888453	72.86749713	52.43294888	5.965174	0.81089839	1	0.00114041	6.76E-06	2.71E+01
118	1	69.70066583	1.30459074	18.16790474	5.985075	0.90418451	1	0.00124077	4.56E-06	3.02E+01
119	1	69.29460049	10.7034983	80.24073816	5.925373	0.74827124	1	0.00112419	9.19E-06	2.80E+01
120	1	61.75397508	36.10939597	34.89363612	5.995025	0.90708143	1	0.00122333	8.73E-06	2.69E+01
121	1	85.28544656	56.56480011	37.213486	5.995025	0.78660164	1	0.00119327	5.30E-06	2.72E+01
122	1	14.59050431	65.35149949	34.89299335	5.890547	0.72881152	1	0.00123319	5.12E-06	2.81E+01
123	1	39.35115204	39.59100523	34.63600149	5.960199	0.6630161	1	0.00131852	7.35E-06	2.72E+01
124	1	84.25135837	7.27569857	63.35088072	5.960199	0.76929188	1	0.00130981	5.29E-06	2.57E+01
125	1	10.89050444	59.3555344	48.36279794	6	0.89078429	1	0.00139256	3.58E-06	2.61E+01
126	1	47.42325833	57.27145581	25.87245713	6.069652	0.69863067	1	0.00127728	8.10E-06	2.48E+01
127	1	54.0976971	63.85551114	11.69452744	6	0.89452968	1	0.00128509	5.75E-06	2.64E+01
128	1	62.98268016	57.31071054	15.90178127	5.905473	0.7628538	1	0.00116906	1.72E-05	2.87E+01
129	1	45.45933882	12.71307877	30.52222083	6.029851	0.75983857	1	0.00144082	3.70E-06	2.56E+01
130	1	8.0398173	56.33105847	35.55158272	5.825871	0.6552398	1	0.00110673	9.53E-06	2.78E+01
131	1	7.64688494	25.31378523	63.21407565	6	0.93061234	1	0.00123342	5.77E-06	2.76E+01
132	1	62.26670895	70.84299743	28.2547469	5.915423	0.72193133	1	0.00100629	7.60E-06	3.01E+01
133	1	18.81688885	46.45896929	81.39838664	5.900498	0.7133071	1	0.00117626	5.02E-06	2.83E+01
134	1	39.15794034	18.17776194	42.04729239	6.835821	0.43574928	1	0.00114873	5.54E-06	2.65E+01
135	1	52.86025161	18.31860957	70.5165236	6	0.92531393	1	0.00135795	4.80E-06	2.63E+01
136	1	83.85017515	24.02700661	32.25771478	5.343284	0.53860409	1	0.00098042	1.03E-05	2.63E+01
137	1	27.07982378	58.0997086	5.85377529	5.940299	0.82813096	1	0.0012318	7.96E-06	2.66E+01
138	1	71.48271704	73.29665199	38.12855376	6	0.87322283	1	0.00142147	2.70E-06	2.63E+01
139	1	35.37268	67.27878739	73.55249056	5.965174	0.83242323	1	0.00116423	3.21E-06	2.75E+01
140	1	63.41770015	8.15648855	57.70308074	5.9801	0.88473867	1	0.00125384	5.67E-06	2.69E+01
141	1	46.61460113	67.1301433	4.58701549	6	0.8487016	1	0.00146205	4.28E-06	2.62E+01
142	1	37.37805251	22.09385492	59.66698605	5.99005	0.75292327	1	0.00130328	5.62E-06	2.67E+01
143	1	19.27952509	49.39346909	17.78813228	5.129353	0.52240741	1	0.00061787	1.07E-05	2.92E+01
144	1	25.18035384	11.76516962	10.5916204	5.995025	0.87496013	1	0.00120511	4.74E-06	2.65E+01
145	1	77.04378625	18.1110053	60.03454515	5.99005	0.88915963	1	0.00118489	6.95E-06	2.84E+01
146	1	48.28089992	0.77410761	51.15194103	6	0.92504507	1	0.00126559	3.76E-06	2.56E+01
147	1	25.14064212	14.71979262	15.91252544	6	0.87850932	1	0.00129537	2.64E-06	2.70E+01
148	1	39.95187057	18.27806027	4.59743478	6	0.8468353	1	0.00125839	8.71E-06	2.58E+01
149	1	70.3427405	30.49758647	0.45411006	5.995025	0.87821052	1	0.00119705	5.06E-06	2.68E+01
150	1	57.73241989	44.96559305	29.1615277	6	0.88734069	1	0.00124962	4.55E-06	2.70E+01
151	1	52.78398237	21.06017703	80.43856932	5.905473	0.78695137	1	0.00107453	6.89E-06	2.69E+01
152	1	30.37566738	75.36484173	74.35571861	6	0.90834953	1	0.00131446	2.45E-06	2.74E+01
153	1	67.55278524	67.80423371	9.80467634	5.467662	0.56351992	1	0.00089138	2.89E-05	2.77E+01
154	1	67.59285128	31.58947357	35.00834848	4.626866	0.83814575	0	0.00097972	1.02E-05	3.08E+01
155	1	64.0878792	8.41785374	37.56974374	5.905473	0.68268278	1	0.00112757	8.63E-06	2.83E+01
156	1	80.42543136	1.09030546	65.03169323	6	0.91590292	1	0.00127367	4.94E-06	2.79E+01
157	1	75.46178415	44.41355998	31.53213634	6	0.79075344	1	0.00116061	7.16E-06	2.74E+01
158	1	74.66281765	7.5800433	0.81681247	5.014925	0.70784075	1	0.00090894	1.29E-05	3.09E+01
159	1	21.26280688	74.31068549	67.86548566	5.970149	0.83320905	1	0.0010958	3.97E-06	2.83E+01
160	1	66.90243049	38.69757895	65.90775151	5.467662	0.41382208	1	0.00086158	2.22E-05	2.55E+01
161	1	40.04057551	69.22739061	7.70793328	5.19403	0.64678287	1	0.00090931	2.37E-05	2.79E+01
162	1	18.31080127	75.31870296	21.12645518	5.577114	0.76618929	1	0.00099704	6.24E-06	2.85E+01
163	1	14.38210087	66.81454976	25.0109559	5.985075	0.85856531	1	0.00112721	5.83E-06	2.77E+01
164	1	11.27897817	0.53429479	61.09741371	6	0.84916288	1	0.00129247	6.88E-06	2.37E+01
165	1	25.54915947	87.27023458	68.61256093	4.691542	0.51365812	1	0.00078914	6.59E-06	3.04E+01
166	1	76.28180408	55.16392752	22.98182367	5.0199	0.59107821	1	0.00078923	2.96E-05	2.90E+01
167	1	39.67876455	80.51475531	78.56515241	5.995025	0.90849016	1	0.00117336	5.04E-06	2.73E+01
168	1	70.48004453	31.38524989	74.30806004	5.00995	0.5974215	1	0.00097257	4.88E-06	2.83E+01
169	1	78.21391123	74.32486247	0.5371238	6	0.88402053	1	0.00131608	7.20E-06	2.64E+01
170	1	23.14191644	8.84576045	57.09641164	5.766169	0.61923723	1	0.0011528	9.27E-06	2.67E+01
171	1	13.06236943	13.65580778	20.09498483	5.9801	0.75652148	1	0.00111272	3.45E-06	2.79E+01
172	1	63.65589256	50.21188157	24.09896715	6	0.84385482	1	0.00150672	3.83E-06	2.59E+01
173	1	58.9198619	14.95424844	67.43267351	6	0.84385838	1	0.00118155	4.01E-06	2.69E+01
174	1	49.34564289	3.65364716	54.37296066	6	0.9078467	1	0.00132029	2.94E-06	2.62E+01
175	1	65.65486812	47.5129203	71.83427207	6	0.76694959	1	0.00137097	4.73E-06	2.51E+01
176	1	29.20065228	64.9080953	69.72041052	5.995025	0.85602668	1	0.0011585	2.76E-06	2.83E+01
177	1	24.55507304	38.68278544	44.26153605	6	0.7857633	1	0.00136513	4.56E-06	2.57E+01
178	1	14.81865971	52.31278256	7.84537625	6	0.91909078	1	0.00133002	3.94E-06	2.54E+01
179	1	45.06801439	38.70736746	39.69486016	5.0199	0.67696346	1	0.00111841	6.51E-06	2.82E+01
180	1	62.76296709	26.34498643	61.17054736	5.064677	0.79175159	1	0.0011136	1.21E-05	2.87E+01
181	1	2.86366947	89.75560263	71.5209714	6	0.89309697	1	0.00137893	3.95E-06	2.43E+01
182	1	10.2540336	6.29490768	4.68283003	4.621891	0.60363985	1	0.00103109	4.30E-06	3.04E+01
183	1	48.40301786	70.84780277	31.32574441	5.99005	0.79627987	1	0.00128637	6.35E-06	2.70E+01
184	1	32.78324196	81.97226649	12.27470939	6	0.94432028	1	0.00138386	3.59E-06	2.69E+01
185	1	16.2354596	72.79460164	21.22279769	5.636816	0.74769797	1	0.00095375	8.36E-06	2.81E+01
186	1	70.14177038	52.84944243	52.88697386	5.830846	0.65220755	1	0.00091194	7.06E-06	2.94E+01
187	1	1.45703165	43.47052445	36.25495393	6	0.90973169	1	0.00130875	7.69E-06	2.55E+01
188	1	55.01750619	82.51089082	52.7609546	5.014925	0.37439902	1	0.00110601	7.25E-06	2.65E+01
189	1	80.4828187	49.59085508	30.42420237	4.333333	0.72616482	0	0.00083311	5.97E-06	3.48E+01
190	1	17.08964157	40.74950222	32.94326785	4.925373	0.71045413	1	0.00092449	5.23E-06	2.93E+01
191	1	19.69105224	36.12844541	54.63843705	5.955224	0.55031279	1	0.0010575	6.39E-06	2.97E+01
192	1	20.54716182	66.63498979	76.4480575	5.99005	0.9135436	1	0.00121909	4.48E-06	2.71E+01
193	1	45.56428783	41.12491892	26.74375619	5.995025	0.85145169	1	0.00112864	8.63E-06	2.79E+01
194	1	20.01534746	14.88225083	22.86464802	5.985075	0.81138856	1	0.00122181	2.57E-06	2.73E+01
195	1	58.27582349	13.34657369	60.67143083	5.293532	0.6751391	1	0.00094474	1.93E-05	2.85E+01
196	1	46.12099864	88.44647734	41.64815133	5.716418	0.69815352	1	0.00110299	5.73E-06	3.02E+01
197	1	29.40008981	47.55442648	61.05890912	5.41791	0.73556458	1	0.00111875	8.46E-06	2.72E+01
198	1	26.52309665	38.28285107	62.43493188	6	0.91422935	1	0.0011679	4.35E-06	2.69E+01
199	1	7.58810229	15.36161595	15.98528437	6	0.87127303	1	0.0012919	3.56E-06	2.66E+01
200	1	43.72778685	21.93649738	31.46017673	5.810945	0.64379885	1	0.00115621	9.40E-06	2.66E+01
201	1	46.47568767	88.22395393	9.04146336	6	0.79086544	1	0.00115987	4.10E-06	2.78E+01
202	1	19.10436678	5.36552029	36.72282133	5.995025	0.93126721	1	0.00131612	4.94E-06	2.78E+01
203	1	81.05278312	53.85765033	40.59161611	5.915423	0.73031925	1	0.0011528	6.99E-06	2.82E+01
204	1	7.5764539	57.33498355	24.72719858	5.537313	0.36775133	1	0.00071838	1.86E-05	2.81E+01
205	1	68.13745359	57.64066639	30.71707211	5.995025	0.55501279	1	0.00108043	6.48E-06	2.69E+01
206	1	78.28968568	47.48831607	10.37180274	5.995025	0.72567063	1	0.00104581	9.30E-06	2.82E+01
207	1	58.11360714	37.38171988	5.87162904	5.975124	0.64033395	1	0.00097873	6.85E-06	2.85E+01
208	1	41.16699687	2.92954844	76.77869402	6.641791	0.48206962	1	0.00083187	1.94E-05	2.66E+01
209	1	26.70541736	80.55305196	57.68648247	5.890547	0.88604462	1	0.00127344	4.44E-06	2.83E+01
210	1	51.14196932	71.70064753	42.25987122	6	0.91587156	1	0.00130991	5.18E-06	2.64E+01
211	1	18.96123264	1.03126389	68.97362772	5.99005	0.79074871	1	0.00131858	8.44E-06	2.40E+01
212	1	19.6226826	6.32394397	77.06320638	6	0.87892906	1	0.00130792	3.68E-06	2.56E+01
213	1	61.06404405	44.32483169	54.47994214	4.676617	0.48584004	0	0.00081107	1.60E-05	3.18E+01
214	1	65.31281852	72.88143053	11.1853303	5.995025	0.83534731	1	0.00125091	9.40E-06	2.62E+01
215	1	15.04789978	9.92659817	19.07509542	5.985075	0.78302521	1	0.00119932	2.62E-06	2.76E+01
216	1	83.29801991	49.67153996	3.10119201	5.462687	0.58845767	1	0.00094791	8.24E-06	3.10E+01
217	1	60.79088009	82.36731034	50.83669952	4.452736	0.50429181	0	0.0008687	1.34E-05	2.93E+01
218	1	14.70231477	83.62173495	10.37228149	6.975124	0.45540615	1	0.00109107	7.83E-06	2.39E+01
219	1	69.57728003	12.2906885	66.78028357	5.00995	0.25181598	1	0.00064913	1.06E-05	3.10E+01
220	1	1.27854504	32.91353284	46.98452509	5.965174	0.53436843	1	0.00112647	5.93E-06	2.81E+01
221	1	58.38268776	56.24288703	47.3353272	4.950249	0.39482499	1	0.00073054	7.94E-06	2.91E+01
222	1	45.11403371	25.27268193	81.97312158	6.472637	0.58113219	1	0.00115081	6.37E-06	2.88E+01
223	1	33.82847843	48.30902002	39.50333991	6	0.93260504	1	0.00133768	3.51E-06	2.61E+01
224	1	30.80874111	28.66446411	80.29380695	5.99005	0.83964165	1	0.00118086	5.22E-06	2.69E+01
225	1	82.45488826	30.93852456	31.89257741	6.308458	0.51027487	1	0.00090711	7.32E-06	2.76E+01
226	1	53.89712599	50.93054213	76.06547229	5.995025	0.70876815	1	0.00124232	5.96E-06	2.59E+01
227	1	77.10104263	79.69862572	39.35908117	5.99005	0.82338367	1	0.00114561	4.08E-06	2.76E+01
228	1	77.97595964	72.52140978	51.78445932	6	0.93097133	1	0.00128854	4.00E-06	2.65E+01
229	1	72.80552742	14.34908255	41.80317342	5.995025	0.87027825	1	0.00116891	5.58E-06	2.83E+01
230	1	76.54034029	44.52732368	70.41443503	5.094527	0.65153227	0	0.00099279	6.90E-06	2.78E+01
231	1	64.71983088	0.84145455	26.21707756	6	0.91721623	1	0.00139634	3.89E-06	2.80E+01
232	1	60.37366845	75.16908367	70.30995486	6	0.91578528	1	0.00138695	3.98E-06	2.63E+01
233	1	47.21678729	52.46483579	73.44800022	6.104478	0.51393797	1	0.00106585	5.36E-06	2.64E+01
234	1	76.7598497	87.89198918	56.48261181	6	0.85246022	1	0.00135975	5.19E-06	2.83E+01
235	1	30.72252438	36.07090094	78.29380424	5.995025	0.88046591	1	0.00120331	5.94E-06	2.79E+01
236	1	48.7160264	0.40425142	29.93372524	5.756219	0.72978193	1	0.00113131	3.86E-06	2.80E+01
237	1	32.59775867	38.33346276	66.42598736	6	0.86262929	1	0.0014588	5.40E-06	2.63E+01
238	1	66.99172071	29.66120227	74.42819226	5.845771	0.83746316	1	0.00116408	4.98E-06	2.84E+01
239	1	76.89806414	14.00254624	35.65959085	5.875622	0.73605843	1	0.00114272	5.29E-06	2.80E+01
240	1	65.82812478	13.71628956	52.06174092	5.995025	0.80046153	1	0.00125934	7.90E-06	2.79E+01
241	1	67.14504898	9.53802398	42.78631409	5.985075	0.86865327	1	0.00110754	7.15E-06	2.83E+01
242	1	76.67096136	2.45443132	72.7634001	6	0.87236323	1	0.0012717	7.55E-06	2.72E+01
243	1	40.84272118	77.63116786	9.2420185	5.995025	0.84130948	1	0.00128452	4.74E-06	2.68E+01
244	1	12.30337798	36.96719828	40.69592526	6.004975	0.70206957	1	0.0011321	8.51E-06	2.62E+01
245	1	50.10641031	65.7182936	61.45440755	4.865672	0.59197949	1	0.00110417	5.88E-06	2.96E+01
246	1	75.70549128	36.46717724	6.45453313	6.512438	0.52061818	1	0.00109893	6.16E-06	2.70E+01
247	1	43.37889735	49.15871345	76.40709614	5.995025	0.74079185	1	0.00133166	5.22E-06	2.63E+01
248	1	78.02859987	27.12844497	61.28472491	5.995025	0.88410814	1	0.00122948	3.14E-06	2.87E+01
249	1	53.73086141	86.97043151	22.7494128	5.895522	0.4710447	1	0.00094871	4.25E-05	2.76E+01
250	1	76.54220598	68.65445138	35.59728978	5.99005	0.81499094	1	0.00118121	4.00E-06	2.77E+01
251	1	36.67678321	-0.51331856	79.01933858	5.024876	0.80020729	1	0.00098996	9.88E-06	2.84E+01
252	1	83.7258384	14.13249455	55.3221232	6.004975	0.74209646	1	0.00108941	7.04E-06	3.02E+01
253	1	11.95786753	64.49665077	79.09384743	5.960199	0.81410786	1	0.00130894	1.91E-05	2.67E+01
254	1	14.94548239	37.9203272	82.21173466	6	0.88497127	1	0.0013545	4.64E-06	2.58E+01
255	1	84.45223643	8.85632007	36.70488101	5.810945	0.80869227	1	0.00107063	8.12E-06	2.74E+01
256	1	69.24269321	43.79449648	17.2796624	6	0.80883306	1	0.00125846	5.07E-06	2.59E+01
257	1	55.71600693	12.92750199	12.97793747	5.99005	0.81732197	1	0.001263	9.26E-06	2.65E+01
258	1	79.83860374	40.8066867	81.447393	5.975124	0.79045072	1	0.00134953	8.31E-06	2.60E+01
259	1	33.65980339	85.85082098	70.65633141	6	0.88141148	1	0.00138353	5.52E-06	2.60E+01
260	1	69.38549623	9.39528971	68.07625029	6.029851	0.36741241	1	0.0007447	6.29E-06	2.85E+01
261	1	75.39725295	31.91811658	11.85464197	6	0.83109322	1	0.00144554	5.62E-06	2.52E+01
262	1	59.2631553	21.63699531	12.39626326	5.00995	0.68477056	1	0.00089563	1.46E-05	2.95E+01
263	1	17.17136432	72.31247281	25.67198433	6.134328	0.58647769	1	0.00095297	1.06E-05	2.78E+01
264	1	83.17802404	87.28650087	1.3296212	5.945274	0.88581857	1	0.00119648	7.84E-06	3.15E+01
265	1	6.52736138	51.96887647	51.86036132	5.482587	0.42856798	1	0.00085803	2.12E-05	2.69E+01
266	1	47.1645001	25.97643488	71.74190103	5.995025	0.90463277	1	0.00125099	5.67E-06	2.71E+01
267	1	71.4876562	27.573461	57.01995751	5.99005	0.85156885	1	0.00116276	8.85E-06	2.75E+01
268	1	74.38154733	55.41818183	49.44970737	6	0.79938558	1	0.00110964	7.12E-06	2.72E+01
269	1	35.44758575	12.02714482	2.7359975	5.661692	0.31258598	1	0.00089171	8.53E-06	2.87E+01
270	1	82.66969186	36.56010709	-0.23725155	5.029851	0.67879999	1	0.00097322	8.58E-06	3.16E+01
271	1	73.74927453	18.77187161	7.98216101	5.308458	0.66884841	1	0.00091181	2.33E-05	2.90E+01
272	1	51.86290877	88.53868807	1.53878293	6	0.88705642	1	0.0011853	3.78E-06	2.92E+01
273	1	57.23837221	70.32859587	18.10574775	6	0.88023977	1	0.00145704	4.66E-06	2.53E+01
274	1	46.56167247	47.42703758	54.00220772	5.965174	0.87985071	1	0.00120059	6.88E-06	2.80E+01
275	1	23.61662914	15.67674515	12.19453281	6	0.91416128	1	0.00132496	2.87E-06	2.68E+01
276	1	41.16786846	66.15674341	23.67472493	5.99005	0.78380668	1	0.00112471	5.88E-06	2.69E+01
277	1	44.26990294	78.66909946	3.23565809	5.945274	0.69937916	1	0.00112453	5.73E-06	2.64E+01
278	1	67.75097536	17.27325447	49.47933815	4.955224	0.68028954	1	0.00097422	8.78E-06	3.01E+01
279	1	11.59573751	1.07251892	41.48058159	5.945274	0.69609279	1	0.00106236	7.44E-06	2.85E+01
280	1	23.3051842	43.87153537	29.97385111	5.985075	0.80392444	1	0.00113403	4.89E-06	2.88E+01
281	1	65.06825726	31.28279244	25.86233258	5.945274	0.78837373	1	0.0011523	3.42E-06	2.74E+01
282	1	71.52368112	6.90865595	57.08807945	3.567164	0.61325099	0	0.00103839	6.21E-06	3.01E+01
283	1	10.22442561	7.2630322	46.18902188	5.910448	0.66961551	1	0.00121994	6.60E-06	2.64E+01
284	1	73.17201017	-0.44063715	64.27748037	6	0.93531969	1	0.00140062	5.13E-06	2.29E+01
285	1	26.10247352	77.35254654	49.34196679	5.995025	0.8772739	1	0.00137174	4.02E-06	2.61E+01
286	1	15.01039739	29.71473102	74.77547745	5.995025	0.88922907	1	0.00126512	2.29E-06	2.79E+01
287	1	81.98475609	30.96874063	8.73934927	4.776119	0.71419911	1	0.00101329	9.69E-06	3.16E+01
288	1	63.60933334	71.26564117	75.66149252	5.268657	0.59195104	1	0.00121912	6.61E-06	2.61E+01
289	1	44.91732147	21.41582877	78.71073379	6.691542	0.39141583	1	0.00106738	5.14E-05	2.60E+01
290	1	71.97200195	5.07146029	30.99464471	6.472637	0.67904338	1	0.00121686	7.96E-06	2.66E+01
291	1	59.3135461	26.48595828	26.48101917	6	0.87937307	1	0.00123001	2.31E-06	2.81E+01
292	1	26.91156084	65.07233156	77.87239737	5.930348	0.65256264	1	0.00130446	5.33E-06	2.63E+01
293	1	74.91138655	3.07842919	77.21869658	5.676617	0.5256071	1	0.00088119	1.09E-05	2.93E+01
294	1	19.12931148	51.09066533	2.20631701	5.995025	0.83937853	1	0.00128972	5.39E-06	2.58E+01
295	1	57.70869139	0.6322636	57.45676307	5.995025	0.92482731	1	0.00129936	4.77E-06	2.51E+01
296	1	0.95721325	26.50762942	68.83434216	6	0.93354387	1	0.00124239	3.09E-06	2.76E+01
297	1	21.15327139	17.6823636	4.72201419	6	0.75122606	1	0.00129491	7.67E-06	2.49E+01
298	1	20.22106401	38.13577109	13.93739016	6	0.85496398	1	0.00116478	3.91E-06	2.71E+01
299	1	68.53685412	23.28502565	83.51210559	6	0.90231226	1	0.00128594	4.05E-06	2.66E+01
300	1	13.25855924	31.00143132	24.59230919	5.995025	0.91187044	1	0.00127939	4.77E-06	2.67E+01
301	1	58.08865534	16.54660746	6.54376548	6.338308	0.50210916	1	0.00082092	1.52E-05	2.83E+01
302	1	82.18004846	54.00319918	47.84459854	6	0.69732165	1	0.0012219	9.62E-06	2.49E+01
303	1	21.42584896	36.80340884	76.86573231	5.995025	0.8862601	1	0.00127244	3.38E-06	2.66E+01
304	1	71.0708179	7.64211853	27.18593433	6.81592	0.68581401	1	0.00121998	1.02E-05	2.74E+01
305	1	4.73120824	41.25344226	56.69126409	5.278607	0.55161064	1	0.00094335	2.16E-05	2.82E+01
306	1	20.57231804	17.78907421	28.18802322	6	0.85967825	1	0.00134329	4.49E-06	2.68E+01
307	1	20.43881869	8.60426417	60.19195737	6	0.8891868	1	0.00144121	8.29E-06	2.55E+01
308	1	85.31155991	81.77312189	83.79194454	5.995025	0.78732344	1	0.00114967	8.88E-06	2.49E+01
309	1	80.98501517	54.53480362	76.51667319	5.228856	0.50100087	1	0.00073744	4.35E-06	2.96E+01
310	1	32.46337017	81.66479699	24.63591934	5.766169	0.84425947	1	0.00120538	5.86E-06	2.87E+01
311	1	57.51205318	42.94967593	47.7601443	5.731343	0.7328467	1	0.00091275	1.89E-05	2.91E+01
312	1	50.90819427	33.77715796	23.9133145	6	0.93602114	1	0.0013026	2.89E-06	2.70E+01
313	1	14.37335972	24.44137875	18.10577472	6	0.9067667	1	0.00129274	3.42E-06	2.71E+01
314	1	45.155958	52.75119304	64.03119765	4.965174	0.45366226	1	0.00082167	1.35E-05	3.03E+01
315	1	46.03187164	47.0909315	-0.292811	5.975124	0.76795348	1	0.00114148	3.96E-06	2.58E+01
316	1	30.39171519	54.63851532	67.19764285	5.99005	0.81458306	1	0.00142904	8.44E-06	2.54E+01
317	1	20.58083122	67.70380655	60.88978272	5.995025	0.88956449	1	0.00120805	4.70E-06	2.82E+01
318	1	68.98470011	60.3213062	51.88062693	5.940299	0.8003807	1	0.00129889	3.43E-06	2.66E+01
319	1	63.72035284	11.55445476	72.25038456	5.925373	0.69025863	1	0.00106152	5.48E-06	2.76E+01
320	1	30.6848469	59.3585837	7.39892487	5.975124	0.83357446	1	0.00124384	6.59E-06	2.70E+01
321	1	8.01950908	77.18802917	64.47121759	4.970149	0.53381989	1	0.00099803	5.48E-06	3.07E+01
322	1	58.48024137	23.16484957	23.44508381	6	0.80825013	1	0.00121471	2.90E-06	2.82E+01
323	1	72.48416467	57.42306253	79.43440493	6	0.92714233	1	0.00140247	7.19E-06	2.58E+01
324	1	27.66337914	76.88513608	56.36405407	5.985075	0.77913387	1	0.00120984	4.23E-06	2.65E+01
325	1	28.31497378	73.51696054	54.42975465	5.975124	0.75262653	1	0.00128049	4.86E-06	2.57E+01
326	1	51.6266261	2.56520977	63.21004133	6	0.81163342	1	0.0013907	5.79E-06	2.64E+01
327	1	12.59433423	2.17441962	22.77344668	5.880597	0.78164599	1	0.00125586	5.11E-06	2.68E+01
328	1	25.42090495	57.97786597	75.11601172	5.621891	0.56511423	1	0.00099758	8.91E-06	2.90E+01
329	1	15.17392311	85.63659755	77.85846816	5.960199	0.83870426	1	0.00120594	3.72E-06	2.88E+01