ITEM: TIMESTEP
0
ITEM: NUMBER OF ATOMS
21600
ITEM: BOX BOUNDS pp pp pp
0.0 85.30205651
0.0 90.32597327
0.0 84.85948310
ITEM: ATOMS id type x y z CN O octa G RVDOS
1	1	78.26454807	1.47326668	68.90709395	6	0.8955428	1	0.00117943	5.45879E-06
2	1	19.6766285	37.66776411	21.57327872	6	0.73959732	1	0.00114354	5.47435E-06
3	1	54.80986333	60.40472419	37.09595757	6	0.87293583	1	0.00122389	5.54221E-06
4	1	49.51637089	34.6403688	39.93233962	6	0.75374432	1	0.00103934	5.4417E-06
5	1	83.30787354	0.60871959	78.0461866	6	0.7416704	1	0.00101098	4.74176E-06
6	1	75.66871188	57.83506642	27.07097312	5	0.72341718	1	0.00117494	5.33791E-06
7	1	25.61226955	29.18691731	32.61211843	4	0.6015007	0	0.00081865	5.06452E-05
8	1	84.64757838	78.65912475	18.84385194	6	0.86648171	1	0.00122782	1.00665E-05
9	1	18.9665839	10.28695128	53.55741232	6	0.79076305	1	0.00145352	6.15763E-06
10	1	50.08016984	6.63946566	51.71992969	6	0.91414877	1	0.00123931	2.81299E-06
11	1	58.78535506	67.20076492	19.57046014	6	0.88792444	1	0.00131442	4.43068E-06
12	1	37.97886051	19.65410269	28.00594919	6	0.90595776	1	0.00128359	3.55736E-06
13	1	7.30680672	39.99465024	59.82242251	6	0.85239888	1	0.001197	3.58521E-06
14	1	10.15913684	58.74245373	7.99392529	6	0.88940988	1	0.00138384	4.05013E-06
15	1	49.77438547	6.640227	57.67537332	6	0.82423395	1	0.00120121	4.53807E-06
16	1	48.17570591	52.88672776	68.82575867	5	0.81066497	1	0.0009656	1.42649E-05
17	1	82.89869942	79.28383558	79.42289237	5	0.83551452	1	0.00105997	4.71031E-06
18	1	65.44975433	81.64799206	27.61085542	6	0.78697708	1	0.00112238	5.18735E-06
19	1	36.60984953	76.41939925	15.0286332	6	0.84656783	1	0.00125599	3.00808E-06
20	1	62.6198096	10.99427687	33.83833468	6	0.83148922	1	0.00123482	5.14667E-06
21	1	56.11084924	28.44110577	28.8851381	6	0.88417003	1	0.00120959	2.43787E-06
22	1	81.33989235	58.37050626	71.98676812	6	0.64105633	1	0.0010251	8.70865E-06
23	1	27.80148674	73.22551768	32.81632527	6	0.73790738	1	0.00128943	5.37815E-06
24	1	83.16692763	31.69447753	19.65085098	6	0.74082071	1	0.00107809	6.38467E-06
25	1	50.8895473	72.22660714	56.60290284	6	0.72182226	1	0.0011867	4.41245E-06
26	1	5.49544058	60.93297877	64.29294851	6	0.65576094	1	0.00112485	7.17016E-06
27	1	67.81852032	10.16068695	16.61807052	6	0.85851737	1	0.00141153	4.84741E-06
28	1	63.90342297	85.57634387	70.56189504	6	0.75654366	1	0.00099356	1.01716E-05
29	1	34.29784869	36.97364406	19.95356607	6	0.57833332	1	0.00092826	1.26934E-05
30	1	19.2492278	20.65579428	48.61834694	6	0.90783289	1	0.00120872	4.40626E-06
31	1	24.62945547	19.19749883	81.32726608	4	0.24490947	0	0.00096598	6.25261E-06
32	1	2.60382926	78.82240453	29.70434982	6	0.86815593	1	0.001124	3.68836E-06
33	1	81.92085329	83.14519054	62.43481999	6	0.861423	1	0.00134614	4.54161E-06
34	1	30.11491775	0.51466998	81.3117556	6	0.81423529	1	0.00122335	4.81712E-06
35	1	34.33417744	4.88509965	8.2718086	4	0.35487075	0	0.00130702	2.90514E-05
36	1	15.88147166	1.45840566	23.71905736	6	0.78635007	1	0.00119366	7.69686E-06
37	1	80.49537956	86.85374689	56.22942749	6	0.90705956	1	0.00133303	3.94374E-06
38	1	38.17571462	21.08323282	55.53151482	6	0.92381575	1	0.00125952	3.7993E-06
39	1	8.45364053	66.81621239	28.3158679	6	0.70059	1	0.00108369	6.76762E-06
40	1	79.82158797	39.52762988	60.9350488	6	0.74871739	1	0.00122305	4.96565E-06
41	1	15.12489051	61.98391861	55.35641248	6	0.72086877	1	0.00125215	3.82576E-06
42	1	5.51963211	88.91525579	48.9065634	5	0.74519618	1	0.00101772	5.94656E-06
43	1	54.07996115	21.40360585	73.72815515	6	0.90354751	1	0.00132058	3.45967E-06
44	1	75.08878771	19.9083165	81.61536212	6	0.76308357	1	0.00112777	4.13386E-06
45	1	26.25352612	2.88561397	77.0250372	6	0.86321571	1	0.00120134	4.28894E-06
46	1	67.0651672	56.98838527	47.02786251	6	0.90395201	1	0.00130996	5.19068E-06
47	1	3.00151313	2.74594348	54.26504371	6	0.8427654	1	0.00130446	3.71076E-06
48	1	16.91815045	46.3087888	48.52558836	6	0.46656015	1	0.00076802	8.87056E-06
49	1	61.49462793	79.05340437	43.93298108	5	0.57690201	1	0.00097275	5.81515E-06
50	1	26.33242946	2.81348618	29.74279676	6	0.70752114	1	0.00128871	5.52149E-06
51	1	61.0098479	33.98153697	66.47281811	3	0.69691611	0	0.00093103	1.62221E-05
52	1	31.81028715	47.73551583	58.08830018	6	0.82307423	1	0.0013296	6.15867E-06
53	1	34.31761225	26.41628262	46.0107362	6	0.88058126	1	0.00126764	7.09234E-06
54	1	77.4424533	24.74537728	16.09274491	6	0.78227059	1	0.00121207	6.02837E-06
55	1	67.96192207	53.55183537	45.64328173	6	0.77705579	1	0.00110277	6.3173E-06
56	1	65.16726292	88.56218679	29.71122829	6	0.91397556	1	0.00132064	5.14523E-06
57	1	60.27239395	53.44609434	43.49013439	5	0.60832648	1	0.00086787	1.52989E-05
58	1	55.34262705	12.70088159	61.13374626	6	0.52518687	1	0.0009605	1.2749E-05
59	1	30.8419471	38.84474981	7.19161423	5	0.72660177	1	0.0009702	4.22237E-05
60	1	67.52754832	27.38239472	5.56526571	6	0.88986816	1	0.00132498	3.03702E-06
61	1	6.52911016	88.59563487	56.08203247	6	0.88293585	1	0.00115714	6.25027E-06
62	1	27.30191836	11.6178297	6.99528069	6	0.66648425	1	0.00101318	4.67403E-06
63	1	48.19052702	18.87176831	14.53833875	4	0.86755605	0	0.000922	2.64787E-05
64	1	73.8590823	77.63820092	72.49737199	6	0.7959391	1	0.00114749	5.10854E-06
65	1	51.29194012	0.10067688	66.06076537	6	0.6277319	1	0.00107333	1.0484E-05
66	1	17.21172475	50.80083292	66.67346485	6	0.875409	1	0.00115233	1.27747E-05
67	1	76.26906078	32.2555775	71.65825855	6	0.74674323	1	0.00121732	3.84111E-06
68	1	42.53604908	4.13543861	12.28359887	6	0.67787804	1	0.00105344	2.15042E-05
69	1	72.74270922	50.76174544	46.97919952	6	0.67835107	1	0.0009996	1.18396E-05
70	1	13.87891739	33.68124018	40.93647687	6	0.75986132	1	0.00125005	6.07735E-06
71	1	24.42375003	42.31493551	63.06243312	6	0.86666297	1	0.00113416	4.73751E-06
72	1	21.88462709	54.69150962	41.5320435	6	0.8588304	1	0.00136105	3.13431E-06
73	1	30.2994106	69.12272152	62.9929981	6	0.80005176	1	0.00114748	2.29297E-06
74	1	22.33744051	53.00877997	18.56539496	6	0.84061074	1	0.00127123	1.21484E-05
75	1	35.23117905	9.24913255	21.23350073	6	0.82927615	1	0.00108766	5.11469E-06
76	1	36.88823598	31.08502094	15.71694753	7	0.5073845	1	0.0011453	6.67982E-06
77	1	35.45031142	33.42061236	36.16510964	6	0.83013447	1	0.00121528	1.10285E-05
78	1	78.92911695	62.78257264	77.94249193	5	0.71551402	1	0.00095402	6.95924E-06
79	1	42.52901799	0.74563012	83.09885448	5	0.69532928	1	0.0009456	1.2154E-05
80	1	49.2501052	52.21554163	23.04429271	6	0.60163302	1	0.00123631	5.00649E-06
81	1	54.19810457	77.81236053	15.41247592	6	0.8397064	1	0.00130643	3.02873E-06
82	1	48.52957484	73.19723759	15.5084867	6	0.85807874	1	0.00115297	2.52132E-06
83	1	6.0749238	22.18317143	65.61640298	6	0.82196564	1	0.00113546	3.93116E-06
84	1	57.81399439	85.74946364	76.56772617	6	0.74432399	1	0.00101694	1.38898E-05
85	1	72.71173809	55.92622673	0.24979153	6	0.83815222	1	0.0012794	4.43663E-06
86	1	79.45193105	1.47642594	24.17597554	5	0.67313796	1	0.00098538	6.66343E-06
87	1	6.19960868	71.50368899	45.24083156	6	0.91029452	1	0.00127507	1.81614E-06
88	1	56.58005234	79.48333315	54.011962	5	0.68261887	1	0.00082898	9.98759E-06
89	1	48.82866514	57.74375961	80.83486125	6	0.80879948	1	0.00149893	5.71574E-06
90	1	35.25468605	12.38401161	32.33335745	6	0.75413362	1	0.0011685	1.25933E-05
91	1	5.91814418	58.13254746	70.46373087	5	0.78539644	1	0.0012167	8.02534E-06
92	1	24.71382122	85.12338215	72.14221231	5	0.63331314	1	0.00075863	5.99763E-06
93	1	51.95911627	37.3998691	23.05823699	6	0.92129433	1	0.00134895	1.7739E-06
94	1	10.73570561	49.78413495	68.52728134	5	0.58577292	1	0.00103132	5.77144E-06
95	1	12.67371546	26.546451	49.34788376	6	0.8864318	1	0.00120933	3.29946E-06
96	1	24.31967176	42.33373587	42.08008225	6	0.88910426	1	0.0013019	2.64792E-06
97	1	43.28017318	83.28217521	3.22070229	6	0.74124248	1	0.00132536	8.71924E-06
98	1	51.93803158	42.26670102	37.59750221	5	0.66422936	1	0.00097009	1.45993E-05
99	1	8.93034914	38.71693205	78.40808937	6	0.82121116	1	0.00119522	2.92204E-06
100	1	31.68122663	4.2642437	81.764366	6	0.89135855	1	0.00132966	4.13432E-06
101	1	66.07465405	8.44600081	13.36200894	6	0.89284805	1	0.00145831	5.45514E-06
102	1	18.03861956	8.3722549	83.63980339	6	0.7544657	1	0.00126802	5.30963E-06
103	1	19.97154302	0.28666635	23.98801733	5	0.50306441	1	0.00092181	8.71237E-06
104	1	69.88466768	54.99001438	82.16918044	6	0.9090949	1	0.0014557	2.81677E-06
105	1	29.68251314	24.81209463	26.87715196	6	0.87096992	1	0.00115382	3.93301E-06
106	1	11.18311511	46.90397473	49.49675161	6	0.76354122	1	0.00115762	9.2087E-06
107	1	68.11326521	16.79973979	26.02332363	6	0.62167173	1	0.0009538	6.87569E-06
108	1	73.00118619	22.58634829	29.25951578	5	0.82461554	1	0.00124981	3.86344E-06
109	1	45.68804697	66.62001347	34.08060165	6	0.84630878	1	0.0012385	6.51135E-06
110	1	74.40735309	41.58609964	60.93715663	5	0.63333168	1	0.00088642	5.4641E-06
111	1	31.00543772	88.9706988	74.09362906	5	0.61575367	1	0.00087823	8.96081E-06
112	1	84.21748899	67.95965279	23.09309921	5	0.53286228	1	0.00098521	8.4333E-06
113	1	8.8766618	70.08153799	9.92488348	5	0.68571619	1	0.00091531	5.92164E-06
114	1	60.5447257	9.92096189	37.01288178	5	0.24240848	1	0.00123611	3.92096E-06
115	1	41.24808851	63.37305048	55.45595461	5	0.69579785	1	0.0008703	1.13613E-05
116	1	8.00457521	34.87769625	65.39863571	6	0.90023894	1	0.00119078	3.51735E-06
117	1	53.31113408	73.17387304	53.26036466	6	0.81303638	1	0.0010881	1.05743E-05
118	1	69.06542309	1.16170337	18.34012538	6	0.88051199	1	0.00136986	3.21689E-06
119	1	69.27081044	11.18363324	80.37058512	6	0.84212685	1	0.00120257	9.48225E-06
120	1	61.47742686	36.31286727	34.87685357	6	0.90711369	1	0.00133731	4.44026E-06
121	1	85.06589205	56.88935281	37.52188623	6	0.8503163	1	0.00123914	4.67381E-06
122	1	14.3658611	65.78337201	34.77184866	6	0.80444294	1	0.00117132	3.75243E-06
123	1	39.15994695	39.86198884	34.21061063	6	0.67587116	1	0.00110255	5.09207E-06
124	1	83.90560719	7.00166399	62.93707257	6	0.81830835	1	0.00125011	5.48498E-06
125	1	10.71682301	59.41594983	48.15104197	6	0.87587438	1	0.00130732	5.29035E-06
126	1	47.26784867	57.05681314	25.80169692	5	0.47033775	1	0.00087994	1.53666E-05
127	1	53.99728729	64.20743486	11.97430487	6	0.86383486	1	0.00122717	4.35382E-06
128	1	61.83796801	57.39444051	16.20398797	6	0.70382561	1	0.00108052	7.75487E-06
129	1	45.43506173	13.1123229	30.43805305	6	0.77103628	1	0.00129735	9.49748E-06
130	1	8.04445582	56.56185801	35.63008214	6	0.72861324	1	0.00133072	3.45046E-06
131	1	7.60828663	25.44380829	63.36051592	6	0.87343694	1	0.00118171	4.41817E-06
132	1	62.21324845	71.02967892	28.98690785	5	0.78678498	1	0.00100388	1.09067E-05
133	1	18.51404094	46.80793539	81.61704174	6	0.63577552	1	0.00120326	3.5779E-06
134	1	39.36791462	18.22638779	42.35735669	7	0.42361953	1	0.00120904	8.0224E-06
135	1	52.85520799	18.22167941	70.86176483	6	0.88258319	1	0.00119106	6.90737E-06
136	1	83.5651427	24.22689094	32.39809657	5	0.64962993	1	0.00101921	1.09386E-05
137	1	26.78572637	58.66719601	5.5969298	6	0.90527447	1	0.0014945	6.56675E-06
138	1	71.05016671	73.54168478	37.6758249	6	0.85310662	1	0.00128977	4.66389E-06
139	1	35.41385207	67.38859024	73.3327149	6	0.81143525	1	0.00114127	3.8002E-06
140	1	63.00639553	7.89584023	58.51833541	6	0.82491678	1	0.00149041	3.46249E-06
141	1	48.10951509	63.86255876	1.66713601	6	0.50421989	1	0.00088701	1.64992E-05
142	1	37.21478646	22.25018962	59.73570553	6	0.80198441	1	0.00128207	3.04018E-06
143	1	19.44348797	48.36765683	18.81426795	6	0.63587579	1	0.00088601	1.77073E-05
144	1	25.0280076	11.64599506	10.79003199	6	0.83700688	1	0.00115376	3.39807E-06
145	1	76.88048738	17.92717221	60.53787407	6	0.82799286	1	0.00113508	4.52645E-06
146	1	48.0447662	1.08635001	51.40459771	6	0.91266873	1	0.00125332	3.95645E-06
147	1	24.97100648	14.77432472	16.21875579	6	0.87448427	1	0.00129252	2.05251E-06
148	1	40.77989769	17.9620237	5.02842651	5	0.71098277	1	0.00105434	8.67104E-06
149	1	70.45719214	30.56515639	1.25832754	6	0.9306408	1	0.0012102	4.50919E-06
150	1	57.32857982	45.09393325	29.47042312	6	0.87946461	1	0.00121723	4.40987E-06
151	1	52.54105008	21.6029537	80.95186556	6	0.88975236	1	0.00131301	5.3162E-06
152	1	30.33965224	75.82629233	74.23682194	6	0.91204901	1	0.00124916	3.06956E-06
153	1	67.77828538	67.68205819	9.85647468	6	0.82225797	1	0.00121321	8.8432E-06
154	1	67.68016268	31.72075866	35.35182563	5	0.84271571	1	0.0009271	7.00556E-06
155	1	63.44970402	8.37076853	37.78086767	7	0.6304174	1	0.00101552	7.41655E-06
156	1	80.03480843	0.64006345	65.06594518	6	0.88077957	1	0.00116783	3.92363E-06
157	1	75.14310215	45.01215136	31.50708743	6	0.87388519	1	0.00142335	3.6005E-06
158	1	74.1858685	7.69306653	0.74700651	6	0.80079651	1	0.00133002	4.99892E-06
159	1	21.11676959	74.68736921	67.57268682	6	0.87760881	1	0.00109122	2.76558E-06
160	1	72.61336474	38.48217232	63.7115905	6	0.57978657	1	0.00094633	9.05905E-06
161	1	36.40147415	67.10355508	9.3445195	5	0.64145537	1	0.00091608	8.39838E-06
162	1	18.87820926	75.5945266	21.29605963	6	0.72220372	1	0.00096078	1.15966E-05
163	1	14.16787353	67.67962778	24.50265482	6	0.85635037	1	0.00114582	5.82522E-06
164	1	11.43130324	0.86014857	61.01280341	6	0.88884585	1	0.00118853	1.61957E-05
165	1	25.59073365	88.29329081	69.06821392	6	0.68358045	1	0.00116625	5.76655E-06
166	1	75.95063158	55.37398986	22.66108962	6	0.71327664	1	0.00098694	1.37751E-05
167	1	39.54917898	80.72401986	78.73309408	6	0.9122494	1	0.00121961	4.60334E-06
168	1	70.67708796	31.55130482	74.49696726	6	0.868506	1	0.00125246	4.17155E-06
169	1	78.09451705	73.86432913	0.78535072	6	0.82676508	1	0.00112618	7.88321E-06
170	1	29.90112168	5.10035932	55.76102687	6	0.75899989	1	0.00103606	9.5992E-06
171	1	13.21042856	13.74755628	20.22563192	6	0.82494691	1	0.00124109	2.88067E-06
172	1	63.26257841	50.72914204	24.41607771	6	0.86589054	1	0.00134664	3.92844E-06
173	1	58.78943932	14.97177598	68.46775247	6	0.82049248	1	0.00116422	3.36004E-06
174	1	48.94902253	3.8580463	54.67868008	6	0.85430243	1	0.00126174	2.94761E-06
175	1	65.08769551	47.03874775	72.04394759	6	0.74605097	1	0.00134713	2.86742E-06
176	1	29.11097657	65.45157996	69.66282051	6	0.87038582	1	0.00122288	2.38494E-06
177	1	24.40373107	38.85537501	44.17319779	6	0.85939451	1	0.00125067	2.81904E-06
178	1	14.6606719	52.94090289	7.95817007	6	0.87522589	1	0.00123988	1.63487E-05
179	1	44.91880146	38.91414248	39.51734385	5	0.7443714	1	0.00107786	4.93704E-06
180	1	62.87102235	25.73399684	61.24193782	5	0.63360501	1	0.00091232	6.30719E-06
181	1	3.19736152	89.56423417	71.23319205	6	0.79250144	1	0.00109396	4.86599E-06
182	1	10.48148333	5.39918376	8.0117722	6	0.79322688	1	0.0009959	1.37653E-05
183	1	48.30295167	71.38626685	31.46368324	6	0.90179068	1	0.00143195	6.51868E-06
184	1	32.78000644	82.26188641	12.3049148	6	0.91790675	1	0.00132556	3.81388E-06
185	1	14.86424884	74.23751982	20.58526888	5	0.79103793	1	0.00096134	1.76757E-05
186	1	69.71700674	53.26974237	52.54757509	6	0.86114649	1	0.00138694	3.98531E-06
187	1	1.21539315	43.5037335	36.3003845	6	0.91318288	1	0.00127925	3.5538E-06
188	1	58.91230956	80.10508684	51.08866933	6	0.83798996	1	0.00116649	9.84798E-06
189	1	80.77744033	50.64526844	31.34422892	4	0.6821388	0	0.0008408	3.24738E-05
190	1	16.8173371	41.47672171	33.10738157	6	0.68460685	1	0.00105169	1.47983E-05
191	1	18.54777834	33.13892672	54.50567486	4	0.36976059	0	0.00105569	2.23887E-05
192	1	20.42957328	67.36571645	76.45560713	6	0.76997214	1	0.00108687	5.81924E-06
193	1	45.23964968	40.87093367	27.00050494	6	0.93095283	1	0.00131745	4.74217E-06
194	1	19.79639752	15.15847881	23.06117937	6	0.82715113	1	0.00124199	2.15045E-06
195	1	60.97328988	14.71598818	61.52529572	7	0.33620883	1	0.00065085	1.17717E-05
196	1	45.64272524	89.34595493	41.81586412	6	0.76433369	1	0.00129833	1.28657E-05
197	1	29.1434252	47.37946606	61.1353212	6	0.76912884	1	0.00120915	8.27476E-06
198	1	26.32567927	38.38034682	62.31686282	6	0.90650384	1	0.00119262	5.03497E-06
199	1	7.59991001	15.65921113	16.26667741	6	0.84705662	1	0.00121499	8.31031E-06
200	1	43.48048577	22.27658168	31.51978608	6	0.73647763	1	0.00126287	1.55932E-05
201	1	46.2522798	88.45642065	9.06591481	6	0.85819441	1	0.00106949	7.79971E-06
202	1	18.86436976	5.74266964	37.0224223	6	0.87865441	1	0.00140482	3.63014E-06
203	1	80.70805238	54.14495065	40.68866953	6	0.83114805	1	0.00134587	3.45372E-06
204	1	6.65284281	61.36956697	21.6776059	4	0.59135316	0	0.00109539	1.93099E-05
205	1	67.69101386	57.82813115	30.88482651	5	0.50728066	1	0.00093121	9.12859E-06
206	1	78.49947936	48.07614334	10.66283739	6	0.66929202	1	0.00105673	8.30046E-06
207	1	55.99440996	39.00011385	6.98813464	5	0.63743492	1	0.00107216	5.77663E-06
208	1	41.3987684	3.00324081	76.4274299	6	0.48970626	1	0.00085521	1.23554E-05
209	1	26.95312169	80.79418165	57.53990738	6	0.82451722	1	0.00126073	4.19644E-06
210	1	50.69799329	72.27898244	42.34025049	6	0.88333951	1	0.00119723	6.76273E-06
211	1	19.18154915	1.39594808	68.64204003	6	0.89054585	1	0.00134514	5.02957E-06
212	1	19.894024	6.68121582	76.46594457	6	0.88011023	1	0.00129242	4.71702E-06
213	1	58.02375949	42.01096055	51.64733635	6	0.7506705	1	0.00110573	6.25272E-06
214	1	65.20435994	72.8524485	10.92671239	6	0.81236711	1	0.00120807	7.97794E-06
215	1	14.74998312	10.20882331	19.18211422	6	0.80495799	1	0.00123737	2.28085E-06
216	1	83.46014224	50.83226154	3.20090806	6	0.7514566	1	0.00099823	7.3636E-06
217	1	63.77053343	83.66144009	53.61164174	4	0.58674206	0	0.00103409	1.71309E-05
218	1	23.38338645	84.03248973	6.62123304	6	0.50035332	1	0.00089999	1.69815E-05
219	1	65.58912687	12.18912004	67.26070604	4	0.52096816	0	0.00081301	1.26672E-05
220	1	1.38324687	33.09146963	47.03296953	6	0.56072148	1	0.00105342	4.53448E-06
221	1	57.12111631	56.85601548	47.28083306	6	0.65740383	1	0.00110363	9.67323E-06
222	1	45.49068295	25.33373311	83.31511912	5	0.49544968	1	0.00090928	1.3818E-05
223	1	33.26339317	48.6087832	39.56281272	6	0.94015609	1	0.00136029	1.70079E-06
224	1	30.96165504	29.40492591	80.2951098	6	0.89796236	1	0.00118085	6.41492E-06
225	1	82.04175783	31.13553836	31.76930342	5	0.71082058	1	0.00099913	1.09301E-05
226	1	53.07887292	50.96793109	76.36218813	5	0.57899829	1	0.001006	7.7666E-06
227	1	76.50525582	80.10458012	39.4231971	6	0.84078352	1	0.00116976	3.3306E-06
228	1	77.62080928	72.73707834	51.55523543	6	0.92771541	1	0.00124686	2.28666E-06
229	1	72.49060985	14.0953567	42.05400029	6	0.82069072	1	0.00115516	4.57943E-06
230	1	78.2401338	44.57667203	70.86462694	5	0.58760349	1	0.0009963	5.90048E-06
231	1	64.32606222	0.66051317	26.50275441	6	0.94839226	1	0.00141748	2.63009E-06
232	1	60.26001706	74.89251823	70.26250883	6	0.84903795	1	0.0013517	4.23755E-06
233	1	46.71298431	54.15813226	72.57555336	6	0.50384691	1	0.00106766	1.25906E-05
234	1	76.24016388	87.88717249	56.67705645	6	0.87306533	1	0.00125742	4.24182E-06
235	1	30.30389004	36.65463586	78.47671154	6	0.84612535	1	0.0012765	4.57522E-06
236	1	48.5757377	0.51829066	30.01079123	6	0.81114881	1	0.00117032	5.49292E-06
237	1	32.11868679	38.47383769	66.44834891	6	0.88725646	1	0.00145236	5.2511E-06
238	1	66.81862798	29.67447	74.77381533	6	0.80855662	1	0.00117824	3.19313E-06
239	1	76.60391805	13.96797066	35.67577131	6	0.80795259	1	0.00109112	4.10249E-06
240	1	65.4363226	14.05565341	53.07523865	6	0.76155351	1	0.00112902	8.68885E-06
241	1	66.72085017	9.60340927	42.67171811	6	0.74223267	1	0.00112544	1.28022E-05
242	1	76.81521538	2.19914821	73.01262169	6	0.84477308	1	0.00112547	7.97992E-06
243	1	40.56126106	77.78162143	9.09019232	6	0.81214092	1	0.00125269	4.47861E-06
244	1	10.7494112	36.21849522	41.87405541	5	0.72407682	1	0.00084525	8.10267E-06
245	1	50.34842852	65.34751209	61.43809643	7	0.4427963	1	0.00090234	3.31079E-05
246	1	75.07124965	36.79403984	6.62029079	6	0.47694648	1	0.00090424	2.09927E-05
247	1	43.60738919	49.18895031	76.01577104	5	0.65272343	1	0.00092197	3.71304E-06
248	1	77.83162064	26.99662586	61.81183418	6	0.86083949	1	0.00125887	3.38873E-06
249	1	53.23438759	88.07786998	23.37058211	5	0.87429977	1	0.00109389	8.66076E-06
250	1	76.09233577	68.94752216	35.56430834	6	0.88127805	1	0.00125463	3.25737E-06
251	1	36.7563444	-0.35398645	78.69393009	5	0.78702545	1	0.00095984	7.54258E-06
252	1	84.00060807	14.02396723	55.40236282	6	0.76704468	1	0.00103803	6.19482E-06
253	1	12.86288576	65.2394107	75.76443082	5	0.42516947	1	0.00102603	1.74832E-05
254	1	14.93735107	38.75276328	82.22401193	6	0.83717553	1	0.00126829	3.07501E-06
255	1	84.17842732	8.86877799	36.82439452	6	0.84759068	1	0.00111408	8.95996E-06
256	1	68.79086558	43.9566219	17.56206942	6	0.73838588	1	0.00103437	8.44175E-06
257	1	55.39769526	12.86296256	12.71092795	6	0.73498561	1	0.00112758	1.0035E-05
258	1	79.67064928	42.16529823	81.31258474	6	0.57255693	1	0.00093849	9.64894E-06
259	1	33.51797163	86.39590052	70.91194035	5	0.57173424	1	0.0009341	5.77453E-06
260	1	70.54665205	7.41258944	66.85439641	6	0.67825553	1	0.00101742	7.30311E-06
261	1	73.47355416	30.99552104	11.57740569	5	0.51801918	1	0.00070806	1.56237E-05
262	1	59.19243091	21.47213994	12.57473305	4	0.55368533	0	0.00094125	8.42946E-06
263	1	16.61269845	73.22511872	24.7166847	5	0.66053803	1	0.00095643	5.67112E-06
264	1	82.82057129	87.59624869	1.24111167	6	0.92990833	1	0.00140795	5.38727E-06
265	1	5.55521182	52.02073008	52.07549922	5	0.34321528	1	0.00073314	5.50625E-06
266	1	47.14139683	25.82769704	71.86009004	6	0.88059399	1	0.00135174	3.38148E-06
267	1	71.68282125	27.64151987	57.7693854	6	0.71906117	1	0.00115068	9.15908E-06
268	1	73.97954032	55.7184826	49.28180594	6	0.85654337	1	0.00119265	5.91004E-06
269	1	35.42121002	11.3290074	83.47351209	5	0.78448606	1	0.00119443	6.14108E-06
270	1	82.33173046	37.08160296	83.66741657	5	0.6045468	1	0.00093594	6.48613E-06
271	1	74.34535304	19.18664817	8.31205581	6	0.84816788	1	0.00110685	6.71634E-06
272	1	51.81359235	88.97423054	1.37546432	6	0.8648481	1	0.0012473	4.32586E-06
273	1	57.24868741	70.66780321	18.19539521	6	0.8885019	1	0.00147625	3.03628E-06
274	1	46.37652592	47.79914421	53.8834238	6	0.80189131	1	0.00128001	5.0106E-06
275	1	23.63267367	15.57014669	12.46194227	6	0.93228895	1	0.0013395	2.1123E-06
276	1	43.79135584	68.00813219	26.27562562	5	0.47324424	1	0.00086608	7.23918E-06
277	1	44.42475009	79.4789978	2.65825602	6	0.53663253	1	0.00078024	1.96654E-05
278	1	68.02267905	17.53686816	49.76438496	4	0.86044799	0	0.00093304	9.24663E-06
279	1	11.61490245	1.28429588	41.30358077	6	0.7605923	1	0.00105923	7.80714E-06
280	1	23.06381372	44.50715739	29.91836364	6	0.85336198	1	0.00116151	2.97624E-06
281	1	64.8668234	31.5400802	25.90030763	6	0.77433486	1	0.00111465	3.87991E-06
282	1	70.99633958	6.4642703	56.21521699	4	0.60468107	0	0.0009269	5.96525E-05
283	1	10.37850366	7.14558391	47.25767158	6	0.88467203	1	0.00135848	7.49678E-06
284	1	72.77537086	-0.83833975	64.63993411	6	0.92840118	1	0.00132085	4.6179E-06
285	1	26.02721212	77.63959025	49.16293228	6	0.85882394	1	0.00128907	6.28108E-06
286	1	15.04577118	30.07462632	74.73686049	6	0.87624898	1	0.00128201	2.11055E-06
287	1	82.56756099	31.63024053	8.71631884	6	0.66956849	1	0.00094477	1.31583E-05
288	1	62.92628248	72.01576825	76.11248504	6	0.76074444	1	0.00130255	4.05925E-06
289	1	43.80969582	19.66615819	78.24285986	6	0.81130466	1	0.00128997	9.65339E-06
290	1	71.48667837	4.84820672	31.09614687	6	0.75686347	1	0.00118501	5.97993E-06
291	1	59.32820306	26.56260315	26.59354592	6	0.88127984	1	0.00123558	2.54667E-06
292	1	27.21089013	65.74291838	77.76737117	6	0.83801767	1	0.0013002	4.39563E-06
293	1	73.06557284	3.07663399	78.87466719	6	0.84760225	1	0.00120938	5.26834E-06
294	1	18.684247	51.2870009	2.30180858	6	0.88209224	1	0.00135067	4.79298E-06
295	1	57.40392963	0.34560569	58.16774774	5	0.76418528	1	0.0010896	5.68941E-06
296	1	1.32004738	26.80724634	69.06802336	6	0.91649548	1	0.00126789	2.69166E-06
297	1	21.08623619	17.72097265	4.49500367	6	0.70939772	1	0.00094718	4.9251E-06
298	1	20.35167005	38.05268204	13.82352691	6	0.89983414	1	0.00120035	4.85294E-06
299	1	68.71893868	23.47776947	84.19279384	6	0.90299997	1	0.00118884	2.22679E-06
300	1	13.22867863	31.55573666	24.40332128	6	0.88909475	1	0.00125551	4.32159E-06
301	1	58.76872225	16.28323097	8.78033949	6	0.38695386	1	0.00092561	8.30865E-06
302	1	82.05896443	54.21224097	47.43860357	6	0.5559477	1	0.00121681	5.35326E-06
303	1	21.24454076	37.39381582	77.00871204	6	0.83414345	1	0.00118024	3.02569E-06
304	1	70.65479473	7.42040424	27.48580064	7	0.73047102	1	0.0013062	2.82955E-06
305	1	3.3006706	44.95872701	57.07662799	6	0.86466248	1	0.00128223	6.92172E-06
306	1	20.15713754	18.39603403	28.22778437	6	0.89026118	1	0.00139446	2.92881E-06
307	1	25.05380558	7.62814862	60.24509093	6	0.46136106	1	0.00103475	8.02079E-06
308	1	85.0645047	82.17460015	84.09608488	6	0.86728048	1	0.00123649	5.21252E-06
309	1	80.35568458	56.27223407	76.65534482	6	0.61447192	1	0.00102379	9.15854E-06
310	1	32.54444364	81.92383844	24.55183075	6	0.88127341	1	0.00118276	3.7418E-06
311	1	54.852432	42.21812043	49.28217553	6	0.86793111	1	0.00120871	4.73507E-06
312	1	50.83327175	33.6147977	24.31844101	6	0.94060438	1	0.00134456	1.82959E-06
313	1	14.4717087	24.85056552	17.84737213	6	0.84001327	1	0.0012545	1.99967E-06
314	1	47.75978003	56.62253911	59.50329538	6	0.54098556	1	0.00092441	7.91055E-06
315	1	45.79917235	47.62040468	84.44333251	6	0.83323795	1	0.00123614	5.02589E-06
316	1	30.52277892	55.13689266	67.28317076	6	0.81141367	1	0.00146095	6.04906E-06
317	1	20.36682749	68.06003502	60.69928457	6	0.92825096	1	0.00127017	3.61103E-06
318	1	68.48718565	60.34358995	51.81051026	6	0.87025733	1	0.00114859	5.2515E-06
319	1	63.349489	11.44854024	72.54526607	6	0.64537103	1	0.00098114	6.6134E-06
320	1	30.42669873	59.89933678	7.3758427	6	0.8901099	1	0.00136223	7.41698E-06
321	1	8.37682417	77.71594533	63.75710055	4	0.45743803	0	0.00098159	4.09617E-06
322	1	58.65535456	23.35486569	23.54093528	6	0.80903171	1	0.00124918	2.03631E-06
323	1	71.90697128	57.54942511	79.60483998	6	0.83522316	1	0.00129946	3.77419E-06
324	1	27.74338221	77.25218961	56.17061142	6	0.80526362	1	0.00122502	4.24737E-06
325	1	28.64068824	73.76359629	54.28593694	6	0.84464066	1	0.00126294	3.3105E-06
326	1	51.43633876	3.03330322	63.55597178	6	0.63492778	1	0.00130832	8.09866E-06
327	1	12.06746855	2.21241541	22.85373717	6	0.68457193	1	0.00115678	5.30965E-06
328	1	25.20473242	58.60883756	76.17162548	4	0.60160658	0	0.00094178	9.98924E-06
329	1	15.49510347	86.39787107	77.88531678	6	0.80110362	1	0.00115454	4.58425E-06
330	1	21.11746538	52.33031451	10.498169	5	0.51039378	1	0.00088053	4.98101E-06
331	1	35.41792106	14.04211967	2.75957355	6	0.49254734	1	0.00119359	7.01501E-06
332	1	42.47866587	87.07655937	77.02174946	5	0.79330494	1	0.00112365	1.5588E-05
333	1	3.38436212	2.6608075	43.14219303	6	0.84006397	1	0.00129232	6.66422E-06
334	1	67.00915116	53.99128106	60.82892199	6	0.77111681	1	0.00141571	6.49786E-06
335	1	37.58320647	52.02395668	24.1106428	5	0.38838275	1	0.00083785	2.60008E-05
336	1	52.80889884	82.28126531	41.37357873	6	0.79280084	1	0.00110945	9.91147E-06
337	1	78.81624899	88.62528648	14.99768695	6	0.90146158	1	0.00124876	3.80969E-06
338	1	10.20285027	73.90651492	68.91451466	6	0.85499301	1	0.00122273	3.41984E-06
339	1	22.57448293	66.83506755	43.41388409	7	0.6746125	1	0.00127594	4.86725E-06
340	1	80.88948549	10.14242785	49.16408743	6	0.54468665	1	0.00086395	8.7051E-06
341	1	61.54519187	27.78033696	82.81084075	6	0.88803528	1	0.00121986	2.25767E-06
342	1	53.88035976	1.50255231	41.80379597	6	0.76991337	1	0.00110549	3.75302E-06
343	1	9.92186045	50.39256327	3.9658195	6	0.7943851	1	0.00126902	3.07728E-06
344	1	11.50053246	4.8185911	54.60578798	4	0.57111804	0	0.00072094	1.27645E-05
345	1	10.33869289	28.79234915	22.42165055	6	0.846334	1	0.00130905	1.68539E-06
346	1	33.54362363	23.97336949	60.09236604	5	0.70711493	1	0.00097618	1.24233E-05
347	1	7.18512828	42.22321035	36.46702846	6	0.887702	1	0.00140335	4.64248E-06
348	1	15.46958287	80.17332966	47.40215917	6	0.85584819	1	0.00113513	4.05179E-06
349	1	75.20360545	38.43214588	75.71093722	6	0.67563104	1	0.00111919	2.72429E-05
350	1	81.81326382	54.48337934	59.04118184	6	0.81623973	1	0.00115379	3.63493E-06
351	1	71.67437576	44.15807646	26.72178566	6	0.84505793	1	0.00134055	2.57777E-06
352	1	39.61400561	77.93806874	65.42967168	6	0.86149348	1	0.00126511	2.88694E-06
353	1	72.9689799	37.57272003	13.87081166	6	0.47974389	1	0.0007992	3.36621E-05
354	1	82.47721343	15.47678431	60.69330591	6	0.87162776	1	0.0012118	6.38435E-06
355	1	69.60187508	82.97324356	70.74948951	5	0.80739892	1	0.00119087	5.99432E-06
356	1	79.39860935	79.47036814	42.5377983	6	0.84733815	1	0.00122211	3.17779E-06
357	1	78.36464489	42.34381315	36.89906648	6	0.85641139	1	0.00147909	1.05447E-05
358	1	29.75244454	80.6940505	83.31194702	4	0.66860826	0	0.00082745	1.34191E-05
359	1	45.56399297	61.48712956	19.33779109	6	0.76232734	1	0.00116249	6.57358E-06
360	1	53.62683391	88.01600587	29.40946152	6	0.5115705	1	0.00105792	2.18598E-05
361	1	11.15256089	85.02903876	83.87444901	4	0.87254712	0	0.0009686	1.08239E-05
362	1	62.64147643	54.49968062	3.56754893	6	0.55873381	1	0.00113813	8.2115E-06
363	1	65.34196551	75.07398462	76.39165689	6	0.82937754	1	0.00126118	4.4032E-06
364	1	4.90851035	35.76344099	68.19240937	6	0.82346824	1	0.00123305	3.42454E-06
365	1	61.8094706	60.76946528	38.03550416	6	0.80970008	1	0.00130339	4.99211E-06
366	1	22.94048889	88.76010523	72.07965972	6	0.78540864	1	0.00108729	6.04982E-06
367	1	12.65516245	15.09643522	71.73671316	6	0.71726594	1	0.00096751	8.32763E-06
368	1	85.10087906	57.25065844	59.93514264	6	0.88208701	1	0.00127152	6.1992E-06
369	1	9.87848146	70.1814925	71.29218091	6	0.8317573	1	0.00109485	4.49077E-06
370	1	6.8938453	25.20430788	55.7462453	6	0.70831717	1	0.00097156	8.51439E-06
371	1	30.47426754	24.41045824	45.32060746	6	0.85964244	1	0.00130319	7.90753E-06
372	1	32.26746224	68.39339517	70.29687402	6	0.93812384	1	0.00132174	2.87961E-06
373	1	18.87623044	88.88940645	71.30967678	6	0.7952759	1	0.00132032	4.8243E-06
374	1	55.37711962	29.58321302	44.04712924	5	0.52483651	1	0.00101227	9.24064E-06