ITEM: TIMESTEP
0
ITEM: NUMBER OF ATOMS
21600
ITEM: BOX BOUNDS pp pp pp
0.0 85.38203962
0.0 90.31595024
0.0 84.67784612
ITEM: ATOMS id type x y z CN O octa G
1	1	78.59116166	1.4683694	69.02134174	6	0.92694594	1	0.00127564
2	1	19.56684543	37.72508163	20.88073615	6	0.71644653	1	0.00105084
3	1	55.29459702	60.03121576	36.88985076	6	0.85486982	1	0.00116084
4	1	49.31962103	34.63467497	39.61574998	5	0.89698349	1	0.00100346
5	1	83.53591003	0.69200472	78.27812059	6	0.77943293	1	0.00110518
6	1	77.10409552	58.63202307	27.21097672	5	0.78615222	1	0.00118324
7	1	24.75482863	32.3187557	33.070597	4	0.55548981	0	0.00086581
8	1	84.71046377	78.70717427	18.19839999	6	0.86273368	1	0.0011505
9	1	20.10651418	10.46790593	55.7979011	6	0.66804423	1	0.00111617
10	1	50.01147763	6.48365131	51.6145778	6	0.89565999	1	0.00125744
11	1	58.56277255	67.18937242	19.4214384	6	0.87505639	1	0.00128407
12	1	37.90004775	19.35722434	27.665605	6	0.90078998	1	0.00130616
13	1	7.4072072	39.941856	59.59329942	6	0.82344417	1	0.00118307
14	1	10.16421903	58.48914814	7.28199406	6	0.87527122	1	0.00136917
15	1	49.93850337	6.54257425	57.62066629	6	0.77388326	1	0.00116434
16	1	48.30763393	52.99938878	67.99557888	5	0.78990466	1	0.00106477
17	1	83.24251942	79.37613797	79.04335665	6	0.80025478	1	0.00113707
18	1	65.71082317	81.55576106	27.2409036	6	0.8182691	1	0.00112869
19	1	36.57678617	76.49234598	14.11081747	6	0.79512241	1	0.00120998
20	1	61.71440258	7.86037122	33.67758341	7	0.5081745	1	0.00120222
21	1	56.14485057	28.47796575	28.80643815	6	0.89238853	1	0.00118326
22	1	81.88539882	58.46095912	71.3168198	6	0.825158	1	0.00132303
23	1	27.98007949	73.40296638	32.13691592	6	0.65261441	1	0.00110585
24	1	81.32558933	34.27457354	18.13444574	5	0.41192478	1	0.00085085
25	1	51.29970556	72.0606246	56.53252502	6	0.62162482	1	0.00088758
26	1	5.80456892	61.15425739	63.46323787	6	0.80137281	1	0.00132039
27	1	67.5335765	10.10862087	16.29860697	6	0.86694269	1	0.00133847
28	1	64.34032723	85.41217853	70.397003	6	0.78171722	1	0.00133027
29	1	34.46905116	37.00733799	19.57580579	4	0.65985298	0	0.00094151
30	1	19.07612094	20.96560367	48.18517451	6	0.91481029	1	0.00129198
31	1	26.96941761	18.49536993	77.64821411	5	0.65671309	1	0.0010031
32	1	2.62151886	78.5401894	29.41533014	6	0.88555646	1	0.00122841
33	1	82.20512144	83.15397075	61.6736523	6	0.8566886	1	0.00131332
34	1	29.90310476	0.99826075	80.91045711	6	0.89081624	1	0.00123884
35	1	33.34213537	2.2020745	12.33424707	6	0.6514485	1	0.001021
36	1	16.24475137	1.55252719	23.45665464	6	0.76946157	1	0.00119076
37	1	80.76979221	86.85380495	55.73602567	6	0.89881269	1	0.00128
38	1	38.31645563	21.18760567	55.32220112	6	0.9141608	1	0.00128512
39	1	8.83756973	66.95396453	27.90853002	6	0.84335256	1	0.00125172
40	1	79.83721201	39.87028747	60.71084024	6	0.73990374	1	0.00119582
41	1	15.33621383	62.28686812	54.69193403	6	0.84428857	1	0.00133939
42	1	5.62408546	89.15388363	48.04839417	6	0.74350047	1	0.0010382
43	1	54.28145902	21.52552926	73.42240775	6	0.91369892	1	0.00132525
44	1	75.11535042	20.01748717	81.52229022	6	0.80400791	1	0.0010037
45	1	26.15832837	3.19814465	76.94988059	6	0.85792384	1	0.00117421
46	1	67.46452444	57.03249644	46.63120804	6	0.83491814	1	0.00119586
47	1	2.95940303	2.85174463	54.07429424	6	0.79532535	1	0.00127565
48	1	17.24482496	46.77992168	48.27077074	5	0.39561393	1	0.00059401
49	1	60.8703007	78.9278427	43.79262085	5	0.57743087	1	0.00110816
50	1	26.52712763	2.8918657	29.14811579	6	0.63485699	1	0.00098755
51	1	60.12999443	35.67143712	66.95405437	6	0.47965618	1	0.00105292
52	1	31.64118599	47.97558998	57.38909875	6	0.87307752	1	0.00138737
53	1	33.92667193	26.29575058	45.75172383	6	0.83964767	1	0.00111342
54	1	77.7312866	25.00394476	16.4239622	5	0.79905071	1	0.00124072
55	1	68.25246489	53.47926537	45.38597345	5	0.62116252	1	0.00098932
56	1	65.17553822	88.4678218	29.01870101	6	0.85281464	1	0.00134964
57	1	60.64161678	51.7148261	43.50325386	4	0.45009499	0	0.00079332
58	1	54.6331425	11.22513972	61.10025159	6	0.72993648	1	0.00109402
59	1	28.74786095	39.84294351	8.41170197	5	0.61968865	1	0.00106436
60	1	67.37713485	27.416322	5.50953537	6	0.90308904	1	0.00132356
61	1	6.25555577	88.64490212	55.26297471	6	0.82050289	1	0.00111495
62	1	27.32204751	11.54256771	7.1174624	6	0.79008103	1	0.00132309
63	1	50.31850289	17.26042362	13.48815189	4	0.74404224	0	0.00086142
64	1	74.00128221	77.37272112	72.19473631	5	0.807597	1	0.00110704
65	1	49.93186942	0.31249616	66.26800668	5	0.76069867	1	0.00108722
66	1	17.70872815	50.69443877	66.38257821	6	0.87501961	1	0.00125568
67	1	76.29840919	32.59120142	71.57173405	5	0.87760556	1	0.00100125
68	1	42.85278946	4.04768476	11.77956452	5	0.71566269	1	0.00114458
69	1	72.92221294	52.51337394	44.29189969	6	0.76555089	1	0.00138387
70	1	13.9891429	33.80069439	40.46773965	6	0.70547811	1	0.00119941
71	1	24.65495426	42.35736625	62.7855875	6	0.88178058	1	0.00121018
72	1	21.70987203	54.85900923	41.1537587	6	0.69084349	1	0.00126378
73	1	30.40591659	69.38814921	62.37963656	6	0.80907087	1	0.00120162
74	1	22.45874826	53.29290273	18.74592011	6	0.89013725	1	0.00145165
75	1	35.007065	9.05140696	21.01367958	6	0.85996721	1	0.00107368
76	1	37.12105799	30.67568788	15.62131561	7	0.6103686	1	0.00115869
77	1	35.3188415	33.28150684	35.79457792	6	0.81218009	1	0.00105431
78	1	79.17397813	62.35967668	77.66598358	6	0.69192901	1	0.00075714
79	1	42.292781	1.15721045	82.49837252	7	0.7179434	1	0.00135569
80	1	49.19708276	52.5356864	22.96949584	6	0.77852654	1	0.00110063
81	1	54.19180131	77.80497141	14.92838318	6	0.85760305	1	0.00122811
82	1	48.59632443	73.28996985	15.20924283	6	0.72991444	1	0.00109358
83	1	6.01568669	22.37980904	65.3755101	6	0.82908545	1	0.00117354
84	1	58.53134428	82.54742358	75.757533	5	0.48089381	1	0.00095721
85	1	72.53813582	55.40664748	-0.02149958	6	0.48071036	1	0.00094877
86	1	79.2242445	1.2695091	24.41743394	5	0.61629882	1	0.00097395
87	1	6.45964922	71.48217746	44.69067604	6	0.9228816	1	0.00128788
88	1	56.68623525	79.37139582	54.38689557	6	0.66326942	1	0.00098136
89	1	49.13768363	58.4169812	80.4753731	6	0.82346364	1	0.00150703
90	1	35.40565145	12.03483587	31.89067891	6	0.65571551	1	0.00106173
91	1	4.05293144	58.63650655	70.26664647	6	0.45525562	1	0.00092948
92	1	23.99857988	85.3748587	71.67300687	5	0.51682283	1	0.00067673
93	1	51.96984812	37.51682465	22.83497789	6	0.91222826	1	0.00130862
94	1	11.00674518	49.53793823	68.01096803	6	0.82098742	1	0.00149942
95	1	12.64229384	26.65651783	48.9413019	6	0.89310815	1	0.00119766
96	1	24.18253236	42.52004525	41.78885032	6	0.86731539	1	0.00128636
97	1	46.58214449	82.30824132	4.21262559	6	0.52248722	1	0.00079685
98	1	51.98280724	42.30433266	37.19460034	6	0.62260167	1	0.00093675
99	1	8.83551462	38.44712951	77.82248685	6	0.74912113	1	0.00120477
100	1	31.88818721	4.53820568	81.52522775	6	0.91170111	1	0.00129331
101	1	65.71667102	7.88757074	12.97900348	6	0.82708927	1	0.00145619
102	1	18.22918961	8.43381202	83.35552803	6	0.85120074	1	0.00130766
103	1	23.06634961	0.71011381	20.58154138	4	0.57512914	0	0.00087276
104	1	69.86537602	54.68004458	81.91413494	6	0.86096541	1	0.00136296
105	1	29.75597593	24.59452596	26.51233504	6	0.87273649	1	0.00115364
106	1	11.69045865	47.14537608	49.02996497	6	0.81912276	1	0.00111749
107	1	67.72613816	16.84770286	25.9226304	6	0.77594244	1	0.00130632
108	1	73.04432251	22.62261746	29.21715401	5	0.80795769	1	0.00119532
109	1	46.10432273	65.90203735	33.54214747	6	0.85395402	1	0.00129828
110	1	70.75937577	40.65084643	59.47296951	4	0.358927	0	0.00127677
111	1	31.11050377	88.91283164	73.31058696	5	0.60895157	1	0.0007727
112	1	84.78516552	67.77609957	22.50312946	5	0.59522625	1	0.00101623
113	1	8.84228146	69.92021087	9.2971104	5	0.68918147	1	0.00095904
114	1	63.49974554	8.5984032	37.97243949	6	0.52446293	1	0.00114434
115	1	41.33972405	63.40920531	54.68201257	6	0.72068539	1	0.00098768
116	1	8.11566393	34.85806568	64.98241185	6	0.8924887	1	0.00119716
117	1	53.64173372	72.86434987	52.89039054	6	0.86761118	1	0.00140826
118	1	69.19102512	0.90435689	18.12861497	6	0.92173627	1	0.00144364
119	1	69.20596456	10.86843737	80.52177727	6	0.80199009	1	0.00116106
120	1	61.54579239	36.28177932	34.94871909	6	0.9231564	1	0.0012924
121	1	85.18687883	56.94149211	36.95921257	6	0.8361709	1	0.00126881
122	1	14.57219253	65.80381431	34.13610476	6	0.80902605	1	0.00116289
123	1	38.78296464	40.03324921	34.15119499	6	0.70743313	1	0.00124714
124	1	84.03070064	7.09680579	63.10882868	6	0.66983026	1	0.00106537
125	1	11.05561356	59.75904861	47.36305525	6	0.88145394	1	0.00146757
126	1	46.17566466	57.67570251	24.12901914	7	0.49307967	1	0.0012163
127	1	54.06940745	64.30560834	11.6488483	6	0.88910042	1	0.0012427
128	1	61.41306372	57.54980349	16.07169221	6	0.85188577	1	0.00121619
129	1	44.87482949	12.29632578	30.0778173	6	0.61831149	1	0.00122262
130	1	8.07082088	56.59409528	35.08184974	6	0.79013074	1	0.00132306
131	1	7.54163481	25.44604974	63.11906721	6	0.89622845	1	0.00122046
132	1	63.33545686	73.79874968	29.12937519	6	0.59010397	1	0.00091734
133	1	18.38470801	46.55897415	81.30178729	6	0.50391534	1	0.00103091
134	1	39.24125577	18.01664991	42.04290446	7	0.43999506	1	0.00114303
135	1	52.8340651	18.37300124	70.39876968	6	0.8106165	1	0.00115011
136	1	83.21894154	24.12901235	32.55530148	5	0.70996811	1	0.00097836
137	1	26.91510077	58.13175774	5.3261667	6	0.73631887	1	0.00128417
138	1	71.16623317	73.69606849	37.25001303	6	0.85628709	1	0.00132156
139	1	35.41700735	67.74675229	72.61736813	6	0.81502757	1	0.00112873
140	1	63.02691542	7.78191256	58.04930143	6	0.67986739	1	0.00118198
141	1	47.62193719	64.89944493	2.61907197	6	0.76592475	1	0.00104218
142	1	37.35338833	22.30819145	59.44695556	6	0.76106747	1	0.00127861
143	1	18.34246556	48.9299584	18.98561009	6	0.63159408	1	0.00109522
144	1	25.06136141	11.67985537	10.75895425	6	0.86119714	1	0.00124346
145	1	76.96430016	17.88534915	60.37319901	6	0.89766786	1	0.00129355
146	1	47.99430106	0.76108578	51.2969989	6	0.88811926	1	0.00129771
147	1	25.0631935	14.62441336	16.04865989	6	0.8708702	1	0.00128725
148	1	38.11959323	16.22677455	4.0217298	5	0.7043148	1	0.00100088
149	1	70.53339239	30.76334539	1.25993195	6	0.88314095	1	0.00105745
150	1	57.20983963	45.29185309	29.12023089	6	0.88104303	1	0.00119676
151	1	52.6434623	21.46998485	80.50729042	6	0.868628	1	0.00127692
152	1	30.47647774	76.05063383	73.70681638	6	0.91176116	1	0.00125349
153	1	67.60731781	67.26385952	9.34063644	6	0.7606046	1	0.00123853
154	1	67.7068209	32.06906275	35.29090687	5	0.77519745	1	0.0010146
155	1	62.50799625	11.03222427	34.76760803	7	0.53604787	1	0.00130747
156	1	80.31366956	0.65305948	65.25394679	6	0.87572545	1	0.00119892
157	1	75.25918824	44.99238826	31.0849921	6	0.88399682	1	0.00129666
158	1	74.14238459	7.63368534	0.95228589	6	0.76288631	1	0.00116124
159	1	21.41582977	74.97676635	66.94083707	6	0.89459845	1	0.00112528
160	1	72.83536139	38.61189769	62.76398578	6	0.57276862	1	0.00095307
161	1	36.85474648	67.28130971	8.44589794	4	0.41862608	0	0.00080031
162	1	19.12062123	75.59387599	20.71253943	6	0.71554166	1	0.00102799
163	1	14.09647141	67.7473152	23.63490662	5	0.81391202	1	0.00097633
164	1	11.29913088	0.88705119	61.05661259	6	0.90039586	1	0.00139883
165	1	25.63605708	88.16018563	67.9483108	5	0.83636324	1	0.00096743
166	1	77.21525784	58.20591878	22.75126141	4	0.483375	0	0.00081611
167	1	39.70840574	80.73930147	77.96341482	6	0.81614879	1	0.0011094
168	1	71.11833042	31.76483048	73.92115125	5	0.56170762	1	0.00091599
169	1	78.33924825	73.79479046	0.5282935	6	0.82502122	1	0.0010947
170	1	29.95618827	4.69591334	55.5878623	6	0.64640855	1	0.00097476
171	1	13.14936938	13.66322314	20.03212501	6	0.82556074	1	0.00119863
172	1	63.29091633	50.49464014	24.03015405	6	0.85870953	1	0.00149043
173	1	59.1491795	14.84536264	67.91508019	6	0.87958366	1	0.00122912
174	1	48.90458342	3.61598424	54.3103785	6	0.92959594	1	0.00141035
175	1	65.23308626	46.91798514	71.54324048	6	0.78981817	1	0.00132885
176	1	29.25948228	65.80597484	68.8865951	6	0.90812956	1	0.00128181
177	1	24.23675184	39.28327345	43.8742256	6	0.87719843	1	0.00125958
178	1	14.77702904	52.84197491	7.35724624	6	0.89313261	1	0.00127658
179	1	44.5960234	38.78066333	39.35166315	5	0.77058874	1	0.00112956
180	1	62.79095978	26.30687973	60.82127567	5	0.54822576	1	0.00092105
181	1	3.16781834	89.6611161	70.71518014	6	0.89170302	1	0.0012068
182	1	10.01167903	5.04959453	7.23960443	6	0.56753492	1	0.00091072
183	1	48.02775209	70.98967174	30.95903238	6	0.89142998	1	0.00141202
184	1	32.79646153	82.26536582	11.36850953	6	0.94429806	1	0.00133905
185	1	15.9327478	73.55874293	20.29119216	5	0.52499135	1	0.00069854
186	1	70.08139619	53.19154268	52.09407393	6	0.80154611	1	0.0012852
187	1	1.23917063	43.727882	35.90219194	6	0.91015637	1	0.00120981
188	1	59.32891191	80.45159985	50.97756876	6	0.8453491	1	0.00113678
189	1	80.46629144	49.79784791	30.14240727	4	0.69044722	0	0.00085196
190	1	16.53156112	41.53313134	32.7714729	5	0.76672451	1	0.00107205
191	1	18.5176362	33.36687653	54.22127108	4	0.37626372	0	0.00097456
192	1	20.54707716	67.56559058	75.73858094	6	0.78688208	1	0.00108773
193	1	45.2427713	40.87943985	26.74130558	6	0.88781965	1	0.00128026
194	1	19.89013212	15.21905683	22.83467867	6	0.84465146	1	0.0013055
195	1	58.40061041	12.72689205	61.24226969	6	0.71923005	1	0.00123355
196	1	44.45528526	2.40861043	42.32477732	6	0.80097124	1	0.00126305
197	1	29.08215531	47.768201	60.59906678	6	0.6999089	1	0.0011889
198	1	26.34079934	38.65878807	61.99918181	6	0.9068623	1	0.00121142
199	1	7.38972808	15.55125135	15.99303038	6	0.83504692	1	0.00119636
200	1	43.48525648	21.85954943	31.54243839	6	0.88515525	1	0.00133814
201	1	46.49407471	88.51961902	8.2858778	6	0.87389352	1	0.00138744
202	1	18.86202922	5.80002075	36.79154473	6	0.8523313	1	0.00132376
203	1	81.01875319	54.16613712	39.97833382	6	0.83001704	1	0.00122008
204	1	6.9708438	60.1339904	25.49198359	5	0.72369046	1	0.00093368
205	1	67.63171101	60.79717804	27.27646105	4	0.56863986	0	0.00082658
206	1	77.91731854	48.17730162	10.34780659	6	0.83219799	1	0.00104383
207	1	57.76032622	37.28710933	6.03584974	5	0.7122062	1	0.0009689
208	1	41.27107892	3.51108011	75.91289976	6	0.48510624	1	0.00086376
209	1	27.09193956	81.0198858	56.92652201	6	0.84824089	1	0.00133566
210	1	50.73250094	71.96348578	42.15314029	6	0.8997103	1	0.0013116
211	1	19.12582533	1.28041118	68.71513279	6	0.81865442	1	0.00130004
212	1	19.73975832	6.71705101	76.39395086	6	0.89246908	1	0.00129621
213	1	57.89047522	40.62755066	50.25862129	6	0.61125338	1	0.00090102
214	1	65.79147378	72.90411134	10.18432554	5	0.53784998	1	0.00120561
215	1	14.58567796	10.0482233	19.12304001	6	0.79938943	1	0.00125886
216	1	83.52045546	50.43350299	2.84029629	6	0.87749491	1	0.0012847
217	1	63.50552173	82.35020779	53.48810615	5	0.65892593	1	0.00117286
218	1	22.18915372	86.80899202	4.41325921	7	0.52115755	1	0.00097419
219	1	60.54504785	14.01318267	64.02866255	5	0.27317575	1	0.00063045
220	1	1.51848665	33.24978177	46.71440909	6	0.57394592	1	0.00109304
221	1	57.77436121	56.6084099	46.95150564	5	0.53607672	1	0.0009177
222	1	44.91650313	25.36387095	82.26967383	6	0.71899291	1	0.00109627
223	1	33.19072127	48.71308682	39.02235694	6	0.92826335	1	0.00136282
224	1	30.97211595	29.50909619	80.34802793	6	0.83972968	1	0.00124876
225	1	82.48891319	31.36448277	31.65381596	7	0.65531639	1	0.00109028
226	1	53.53062961	50.55347856	76.35266704	5	0.55540804	1	0.00085418
227	1	76.67855965	79.98424856	38.76805177	6	0.86374312	1	0.00124443
228	1	77.74280979	72.92577899	51.06603526	6	0.93233872	1	0.00124483
229	1	72.42844307	14.0664245	41.98717365	6	0.79285469	1	0.00114296
230	1	75.42954935	43.84341746	70.86024957	5	0.59698135	1	0.00093894
231	1	64.44829562	0.44185315	26.19502427	6	0.94868081	1	0.00142785
232	1	60.59245001	75.00435426	70.06777292	6	0.9056871	1	0.001398
233	1	47.51154622	54.16435937	72.98110588	5	0.4156611	1	0.00082278
234	1	76.45506151	87.6836147	56.19242535	6	0.86005569	1	0.00123278
235	1	30.32218789	36.9022907	78.17322548	6	0.85238761	1	0.00121146
236	1	48.72888659	0.07479553	29.89195338	6	0.79787174	1	0.00114935
237	1	32.4205567	38.64456679	66.17944275	6	0.88033203	1	0.00136474
238	1	67.15920899	29.69527742	74.56716631	6	0.76164764	1	0.00104256
239	1	76.5958625	13.94452281	35.84640223	6	0.74385537	1	0.0010526
240	1	65.46270276	14.02426483	52.53279536	6	0.72311663	1	0.00122291
241	1	66.94748952	9.56310167	42.82326399	6	0.68373678	1	0.00118438
242	1	76.89912113	2.20344945	73.13218171	6	0.77348355	1	0.00104248
243	1	41.04282515	77.70816326	7.98328027	6	0.81537532	1	0.0011129
244	1	11.74408429	37.23842003	40.12124294	5	0.60253737	1	0.0010203
245	1	47.915438	64.57680986	58.67783052	5	0.61606323	1	0.00107671
246	1	77.5618846	36.20311598	6.47603766	5	0.46379223	1	0.00085454
247	1	43.59790574	49.77041554	75.52027189	6	0.82197347	1	0.00113235
248	1	77.75545883	27.20514542	61.67935671	6	0.86144539	1	0.00123485
249	1	53.02316598	87.69805153	22.81875165	6	0.82640834	1	0.00109216
250	1	76.4266379	69.05149885	35.0350589	6	0.87006735	1	0.00125477
251	1	36.67732853	0.17439859	78.50141233	5	0.82537063	1	0.00096099
252	1	84.28387108	13.99863765	55.19698973	6	0.7771688	1	0.00113819
253	1	11.17896594	64.32702755	77.58540304	6	0.62403756	1	0.00093391
254	1	14.6135775	38.62314937	81.75081146	6	0.78917549	1	0.00131247
255	1	83.98378206	8.94247062	36.97730559	6	0.82815285	1	0.00113939
256	1	68.64292206	43.92531057	16.90377286	6	0.79806813	1	0.00119704
257	1	55.51956524	13.1857027	12.69005781	6	0.52371064	1	0.00093992
258	1	79.83836178	41.86358494	81.47231499	4	0.59506444	0	0.00096797
259	1	33.793837	86.40632389	69.56679643	6	0.86422171	1	0.00122459
260	1	71.24422748	7.46675495	67.05211999	6	0.69796823	1	0.00097035
261	1	74.15586364	31.3877547	12.63936609	6	0.52552666	1	0.0009471
262	1	56.59871507	21.00054207	10.2012456	5	0.8884393	1	0.00108535
263	1	17.40969256	73.13275065	24.10806639	6	0.7333038	1	0.00093761
264	1	82.9800367	87.71184631	0.6781967	6	0.92701099	1	0.00141195
265	1	9.45801445	50.99924234	49.46715517	6	0.83350442	1	0.00136552
266	1	47.33358887	25.98797479	71.43034499	6	0.85864192	1	0.00136941
267	1	71.18289826	27.50289895	57.74873557	6	0.81837548	1	0.00103306
268	1	74.34712088	55.83287986	48.93599627	6	0.92695628	1	0.00127663
269	1	35.87682417	12.0526436	82.90325351	6	0.82032263	1	0.00131983
270	1	82.67906447	37.19071746	83.71146489	6	0.41382981	1	0.00097067
271	1	73.96880909	19.05435331	8.19359551	5	0.76398644	1	0.00103699
272	1	51.79513657	88.7458139	1.08953658	6	0.7864031	1	0.00123965
273	1	57.15715335	70.61766679	17.87535603	6	0.85693127	1	0.0014739
274	1	46.43865582	47.40016218	53.51552483	6	0.87765462	1	0.00126148
275	1	23.69138831	15.57458201	12.25313039	6	0.93506738	1	0.00136147
276	1	43.12241457	69.27700879	25.80969696	6	0.81731394	1	0.00130355
277	1	45.66834985	79.21584767	83.77495072	5	0.58614137	1	0.00100498
278	1	71.50413808	18.81103929	50.72489702	6	0.7761291	1	0.00105175
279	1	11.80566946	1.34244826	41.06211342	6	0.79143741	1	0.0011596
280	1	22.96517925	44.68553389	29.49912635	6	0.83704109	1	0.00114604
281	1	64.96094804	31.51416006	25.93144703	6	0.77164661	1	0.0011032
282	1	71.05591412	6.1352816	56.1886588	5	0.69499991	1	0.00098571
283	1	10.71633311	7.20972479	47.20810896	6	0.89298992	1	0.00141025
284	1	72.83471414	-0.88281577	64.72172401	6	0.84034518	1	0.00119631
285	1	25.99577973	77.81941149	48.406214	6	0.87944991	1	0.00132683
286	1	15.04114978	30.02257044	74.4662773	6	0.87021648	1	0.00126195
287	1	82.06308121	31.70582895	9.26342214	6	0.82586419	1	0.00105714
288	1	63.40746306	71.54602914	75.49044646	6	0.88356693	1	0.00146091
289	1	44.1618291	19.5433124	77.91253676	6	0.79878933	1	0.00125021
290	1	71.36535417	4.8373062	31.02201976	6	0.8191989	1	0.00122007
291	1	59.36785685	26.59857949	26.7586455	6	0.88268817	1	0.00120422
292	1	27.28431092	65.68150782	77.09226302	6	0.77050005	1	0.00125601
293	1	73.23344481	3.01141586	78.90416013	6	0.85080471	1	0.00133163
294	1	18.46322984	51.55243824	1.83358353	6	0.73079089	1	0.00133568
295	1	57.31587569	0.2744001	57.41520133	6	0.82621652	1	0.00113338
296	1	1.29400655	26.80265916	68.84954025	6	0.93763617	1	0.00127873
297	1	20.78098019	17.25307282	4.53078292	6	0.90478165	1	0.0012944
298	1	20.66172004	37.9128253	13.25120259	6	0.83674095	1	0.00119681
299	1	68.90432508	23.48355732	83.90468764	6	0.8632826	1	0.00116596
300	1	13.18659807	31.46404561	24.35441932	6	0.91377158	1	0.00117987
301	1	59.07871938	15.43786658	8.34407614	6	0.81602806	1	0.0012367
302	1	82.44877043	54.32684501	47.14883204	6	0.85738716	1	0.00131597
303	1	21.08864425	37.37131641	76.74894411	6	0.87407085	1	0.00125194
304	1	70.4327136	7.34866571	27.38710615	6	0.81859266	1	0.00131827
305	1	3.44046976	45.06208335	56.74620083	6	0.83990092	1	0.00122415
306	1	20.15543379	18.43274155	28.18652846	6	0.88794362	1	0.00133519
307	1	26.19788856	6.44863758	59.872053	5	0.44565063	1	0.00091353
308	1	84.86060123	82.3175927	83.39330429	6	0.78596608	1	0.00113514
309	1	80.18419851	54.89150149	76.58423447	6	0.65065339	1	0.00106527
310	1	32.52969732	81.83237641	23.66776989	6	0.85159203	1	0.00118077
311	1	54.80016685	41.62800897	48.21728048	6	0.85089411	1	0.00122512
312	1	50.72082611	33.59083555	24.04735389	6	0.92931284	1	0.001318
313	1	14.44878106	24.75265144	17.71513024	6	0.83471306	1	0.00125199
314	1	44.66642439	54.80884028	61.50635323	5	0.75077587	1	0.00104972
315	1	45.95388048	47.80971496	83.63798399	6	0.85001983	1	0.00130348
316	1	30.26082267	54.86427962	66.37338343	6	0.90026318	1	0.00139918
317	1	20.29761457	68.44537953	60.1145304	6	0.91200453	1	0.00122194
318	1	68.81829708	60.4958932	51.16098158	6	0.85825649	1	0.00122962
319	1	63.37434916	11.71079522	72.752057	6	0.83752278	1	0.00134021
320	1	30.3643388	59.54603804	7.07353183	6	0.89101775	1	0.00141527
321	1	8.36069936	77.76952133	63.4286656	5	0.76187795	1	0.00109177
322	1	58.6554709	23.43278711	23.80333472	6	0.86138983	1	0.00129518
323	1	71.15281277	57.4389012	79.26295675	6	0.74712565	1	0.00119626
324	1	27.70472949	77.28566997	55.49690823	6	0.79962036	1	0.00126279
325	1	28.59852459	73.92229474	53.49362225	6	0.86185022	1	0.0013086
326	1	51.16334722	2.31851483	63.32637371	6	0.88711843	1	0.00141134
327	1	12.31558113	2.10905575	22.65704984	6	0.64224493	1	0.00112505
328	1	25.27944289	58.43813698	74.16441054	6	0.56867206	1	0.00087069
329	1	15.50124648	86.5618888	76.99953445	6	0.78543378	1	0.00120383
330	1	19.0285697	53.31939742	8.61436071	6	0.7563751	1	0.00121462
331	1	36.75022184	13.42439668	2.24496786	5	0.58714046	1	0.00091805
332	1	42.32439045	87.39328165	76.2092935	5	0.80680638	1	0.00112372
333	1	3.24152466	2.93399107	43.15244992	6	0.87479894	1	0.00133348
334	1	67.53216453	54.03074767	60.14633718	6	0.59873506	1	0.00107692
335	1	37.25771016	50.38399207	23.05920607	7	0.60205565	1	0.00092713
336	1	52.70124342	81.87458596	40.7929402	6	0.68980161	1	0.0009798
337	1	78.74782376	88.38826286	14.48272409	6	0.88515209	1	0.00122769
338	1	10.57063409	74.04349242	68.55857004	6	0.80270169	1	0.00125465
339	1	22.56270455	68.26923723	41.55306644	5	0.7360753	1	0.00104234
340	1	80.77993499	10.00598512	49.15127403	5	0.65670352	1	0.00089301
341	1	61.71568827	27.89561131	82.41185422	6	0.89491422	1	0.00121139
342	1	53.93915734	1.24421829	41.89203828	6	0.79281045	1	0.00123467
343	1	9.81846567	50.18075869	3.43130334	6	0.79062914	1	0.00121194
344	1	9.86997618	4.04176534	54.78569658	5	0.54901816	1	0.0008575
345	1	10.3250892	28.90510135	22.26411116	6	0.85832561	1	0.00120392
346	1	33.66467404	24.47481688	59.90030116	6	0.57571348	1	0.00099555
347	1	7.38873111	42.75644704	35.92001735	6	0.87071358	1	0.00125772
348	1	15.74117003	80.3285031	46.67334861	6	0.82340574	1	0.00114668
349	1	75.62301577	38.27815518	75.42812413	6	0.69290604	1	0.00137757
350	1	82.4337408	54.63289715	58.39121546	6	0.87510759	1	0.0011937
351	1	71.5543921	44.29490724	26.21167199	6	0.832857	1	0.0012815
352	1	39.6687276	78.0276931	64.58545494	6	0.88871882	1	0.00128894
353	1	71.20006755	38.85224219	12.34715051	6	0.72230504	1	0.00143946
354	1	82.65483325	15.30174388	60.16274461	6	0.79158236	1	0.00120277
355	1	70.24638317	82.89835755	70.13944774	5	0.80375407	1	0.00116966
356	1	79.39155841	79.48030672	42.05769597	6	0.8576336	1	0.00125594
357	1	78.30182568	41.55778307	36.56537166	6	0.59429547	1	0.00134718
358	1	30.04859747	81.21290578	83.02681926	4	0.55552859	0	0.00069718
359	1	45.25257266	61.30637764	18.22018131	6	0.63043227	1	0.00113144
360	1	54.23337402	87.81948038	28.75846135	5	0.754273	1	0.00088898
361	1	11.35918181	84.72236618	83.08178891	4	0.82921721	0	0.00098839
362	1	62.83381436	55.46116086	4.45122628	6	0.62005821	1	0.00096312
363	1	66.06500013	74.86049944	76.03438975	6	0.84015973	1	0.00123978
364	1	4.82639106	35.72257989	67.78411382	6	0.84892045	1	0.00125559
365	1	62.21769162	60.66516676	37.95226377	6	0.81338767	1	0.00126471
366	1	23.09167072	88.9104835	71.10090833	6	0.707613	1	0.00101057
367	1	12.56819934	14.89311381	71.52095499	6	0.76771497	1	0.00103152
368	1	0.05005645	58.70475777	59.35745431	6	0.90535811	1	0.00139344
369	1	10.09061384	70.40659353	70.84716953	6	0.83384456	1	0.00112728
370	1	6.89242246	25.32857657	55.38563452	6	0.72275071	1	0.00098958
371	1	30.23795132	24.10221436	45.408377	6	0.86026047	1	0.00116717
372	1	32.52867983	68.60412878	69.70532886	6	0.93770244	1	0.00131979
373	1	19.01535563	88.836164	70.83112776	6	0.82287106	1	0.00131771
374	1	54.99012302	29.92242476	43.78383362	5	0.70524607	1	0.00103163
375	1	58.5026067	8.52211858	5.70604734	6	0.68202507	1	0.00114764
376	1	27.57214807	40.48211277	50.28520929	6	0.87460567	1	0.00119174
377	1	51.38168781	75.53553785	76.179102	6	0.78401974	1	0.00124026
378	1	26.07819327	40.00823653	71.70667827	6	0.92862489	1	0.0013123
379	1	48.75959475	10.17220204	4.98700233	6	0.70206623	1	0.00101498
380	1	19.37250675	88.92764732	36.71356464	6	0.9121582	1	0.0012799
381	1	44.92431642	67.99349407	30.54584182	6	0.60985546	1	0.00094684
382	1	52.10400271	63.2102984	26.45660743	6	0.75939672	1	0.00111929
383	1	30.45826923	51.72602008	39.9065407	6	0.92195365	1	0.00131167
384	1	26.97109384	89.16370845	1.89946616	6	0.87017626	1	0.00138561
385	1	40.81414671	84.51997296	17.58162783	6	0.93337559	1	0.00141613
386	1	41.86054459	32.28877533	74.47060627	5	0.53209347	1	0.00100508
387	1	58.02271977	39.39577558	75.23855924	6	0.65480977	1	0.00110583
388	1	58.42691623	20.8806748	3.31493432	6	0.91319325	1	0.00131524
389	1	48.3032717	72.24728677	2.14445039	5	0.81029417	1	0.00102883
390	1	68.55011209	85.63380473	81.18206427	5	0.77265311	1	0.00099102
391	1	62.73764831	72.62991246	32.89310292	6	0.85585437	1	0.00125916
392	1	55.857706	56.41472477	82.49778656	6	0.89808625	1	0.00141126
393	1	3.54679637	51.60712102	52.41443416	5	0.60301252	1	0.00114964
394	1	9.02430698	44.87420496	77.30094752	6	0.6882098	1	0.00125871
395	1	23.12397021	51.74772937	25.26199305	6	0.83160202	1	0.00133164
396	1	70.45435278	86.49027322	24.53513749	6	0.73371326	1	0.0011512
397	1	60.07408952	28.29728707	42.5535331	6	0.5828793	1	0.00097418
398	1	59.63844967	33.83014797	54.58918115	5	0.71148409	1	0.00101871
399	1	9.80179098	26.9610818	5.91788133	6	0.83268777	1	0.00122453
400	1	27.61552923	32.20975305	16.67783476	6	0.88550887	1	0.0011807
401	1	82.32998451	82.51868112	42.99383272	6	0.86864283	1	0.00131188
402	1	72.11196374	56.58010879	68.33038715	6	0.67131034	1	0.00102057
403	1	66.65556204	19.73216659	33.53153699	6	0.68487235	1	0.00102139
404	1	33.48186507	5.17574695	17.48755951	6	0.83920089	1	0.00127812
405	1	82.21853342	27.15360488	22.36800665	6	0.73507956	1	0.0013599
406	1	11.06965456	59.61099785	69.13596457	5	0.62006867	1	0.00102701
407	1	6.8859027	28.6179955	52.9693596	6	0.58743128	1	0.00102395
408	1	9.51184437	47.65391326	81.01170603	6	0.74608954	1	0.00112728
409	1	50.93188939	83.34378466	59.19989853	6	0.52983165	1	0.00103165
410	1	14.30459152	29.17625519	80.34851458	6	0.92618695	1	0.00131062
411	1	10.74554684	51.1001477	22.52296256	7	0.41722002	1	0.00079949
412	1	39.39705045	81.83827935	14.46183225	6	0.89744591	1	0.00129463
413	1	24.58394707	36.97236825	13.90016683	6	0.87666343	1	0.0012087
414	1	52.42472471	62.16381093	0.78881496	6	0.79693941	1	0.00105294
415	1	67.39731152	17.23301462	49.74270833	6	0.7021341	1	0.00094873
416	1	23.24073334	60.79087657	52.64119458	6	0.72103146	1	0.00123179
417	1	20.05265147	24.09500919	37.99418809	6	0.86856353	1	0.00130967
418	1	78.61162015	9.36156211	16.63335395	6	0.78388321	1	0.00103106
419	1	78.09025725	63.93344053	10.65216203	6	0.81161003	1	0.00106824
420	1	69.74289136	3.5960439	81.4234547	6	0.76620413	1	0.00116149
421	1	59.19363033	22.57229077	50.12766134	5	0.49094621	1	0.00090317
422	1	68.1695807	8.26690552	77.87706035	5	0.69900919	1	0.00111996
423	1	2.04537509	3.87718117	13.65214243	6	0.69037598	1	0.00097283
424	1	68.54788095	84.62604908	21.09929621	6	0.84941557	1	0.00118746
425	1	54.39510392	23.45234983	51.56245377	6	0.80293682	1	0.0010751
426	1	75.09430152	23.89499655	80.55749495	5	0.49694032	1	0.00074126
427	1	46.15484977	63.13008991	10.24270745	6	0.70592153	1	0.00113472
428	1	57.64488398	76.87499764	3.73277749	6	0.83958612	1	0.00115952
429	1	50.1961284	19.34630902	7.46989416	5	0.71525356	1	0.00091143
430	1	32.85857964	82.2214329	5.15702534	6	0.86696375	1	0.00116176
431	1	75.79620112	59.21044267	42.62766762	6	0.87843795	1	0.00131961
432	1	19.35784976	20.28892603	36.42196772	6	0.82623815	1	0.00126006
433	1	18.74178413	72.29438093	39.73793367	6	0.91452045	1	0.0013014
434	1	69.77881612	77.92527304	61.99525268	6	0.7767853	1	0.0011494
435	1	56.41433692	53.96434157	30.79983959	6	0.52383148	1	0.00074341
436	1	26.43178443	51.02218962	27.57286576	6	0.84159993	1	0.00124518
437	1	52.08973238	44.90162931	56.02362836	5	0.77607962	1	0.00102966
438	1	3.07501081	54.74097256	69.92882664	6	0.56479182	1	0.00099911
439	1	75.11536087	6.06125174	66.79269806	6	0.84108027	1	0.00115736
440	1	49.94756888	35.67727406	75.85703796	6	0.88650826	1	0.00135381