ITEM: TIMESTEP
0
ITEM: NUMBER OF ATOMS
21600
ITEM: BOX BOUNDS pp pp pp
0.0 85.18639716
0.0 90.48761183
0.0 84.69904345
ITEM: ATOMS id type x y z CN O octa G
1	1	78.37769713	1.06150133	68.71073748	6	0.89263359	1	0.00117363
2	1	19.39352545	37.46611175	20.50341352	6	0.88299676	1	0.00115605
3	1	54.75650214	60.09577421	36.74010699	6	0.92834507	1	0.00128591
4	1	49.03849585	34.776318	39.61364787	6	0.86340937	1	0.00099218
5	1	83.33055187	0.21964576	78.12209775	6	0.78495477	1	0.00107104
6	1	76.93906792	58.53540579	27.18728424	6	0.87423232	1	0.00131397
7	1	26.98051231	34.42037612	32.85004552	6	0.49660826	1	0.00083408
8	1	84.50015262	78.53424457	18.00176299	6	0.90760476	1	0.00127961
9	1	20.45711847	10.06741995	55.56212213	6	0.78404697	1	0.00128836
10	1	50.01994229	6.53808568	51.30451168	6	0.87046509	1	0.00125267
11	1	58.90148094	67.25215084	18.89039726	6	0.76560911	1	0.00114896
12	1	37.69778398	19.32105783	27.70571473	6	0.91898952	1	0.00127479
13	1	7.15518331	40.09138968	59.63607072	6	0.82342251	1	0.00118305
14	1	10.11857986	58.67154597	7.44070629	6	0.89751795	1	0.00132153
15	1	49.95965505	6.51285749	57.15536687	6	0.79246189	1	0.00115424
16	1	48.46433424	53.45785251	68.10241694	6	0.80966666	1	0.00116919
17	1	82.87085872	79.32623571	78.83504108	6	0.83199902	1	0.00111573
18	1	65.87030801	81.98667799	27.55016485	6	0.84665826	1	0.00134663
19	1	36.59744981	76.69475961	13.86205951	6	0.79507196	1	0.00116926
20	1	62.66283157	7.61260212	34.29173642	6	0.54190111	1	0.00096504
21	1	56.07987362	28.46352341	28.6224981	6	0.89177777	1	0.00114957
22	1	81.74876511	58.14063094	71.2109291	6	0.87201717	1	0.00124706
23	1	28.04990544	74.25989235	31.71337404	5	0.72303644	1	0.00083701
24	1	80.46428719	35.64108418	21.25538094	5	0.66928332	1	0.00092709
25	1	50.97772139	71.99473895	56.03395799	6	0.77857018	1	0.0012483
26	1	5.78297108	61.17581817	63.31422063	6	0.88392685	1	0.00133459
27	1	67.35017542	10.03952945	16.44782927	6	0.882212	1	0.00128681
28	1	63.78837283	85.71505902	72.10281315	6	0.66571167	1	0.00094845
29	1	34.19111885	36.57479416	19.60131106	5	0.75216856	1	0.00094642
30	1	19.54594186	21.75923156	48.46472631	6	0.79925718	1	0.00110996
31	1	26.34133891	18.57928427	77.17383915	5	0.62546696	1	0.00085979
32	1	2.47611228	78.75737708	29.16007634	6	0.85986235	1	0.00114855
33	1	81.97796688	82.91734221	61.64257415	6	0.88008736	1	0.00144393
34	1	30.03895583	0.74182433	80.78360923	6	0.8313185	1	0.00127861
35	1	33.66792227	2.35780104	11.72333282	5	0.6687301	1	0.0009491
36	1	15.96786011	1.25686162	23.25542801	6	0.83765136	1	0.00127264
37	1	80.70614594	86.55345746	55.27891141	6	0.86519972	1	0.00122391
38	1	38.39301812	21.00111751	55.24962511	6	0.91154839	1	0.00125924
39	1	8.97672972	66.90857528	27.75964349	6	0.78418508	1	0.00115549
40	1	79.50521519	39.64340165	60.74342999	6	0.76562237	1	0.00111516
41	1	15.38025134	62.43117735	54.88663866	6	0.79657613	1	0.00144914
42	1	6.27685872	89.22576231	47.94238561	6	0.75149104	1	0.00098779
43	1	54.12800173	21.35330112	73.22287742	6	0.90868068	1	0.00136465
44	1	74.66719914	19.57319267	81.53146237	6	0.84039083	1	0.00123131
45	1	26.13781078	3.41588066	76.99308118	6	0.90742134	1	0.00130055
46	1	67.23053196	57.22606385	46.29336824	6	0.90021137	1	0.00126256
47	1	3.1823866	2.8140697	54.01431105	6	0.77628442	1	0.00123007
48	1	18.67574079	47.52096819	49.41215915	6	0.72406363	1	0.0010335
49	1	60.95133281	78.44876704	43.5908227	5	0.4390326	1	0.00113175
50	1	26.51602756	2.85128416	28.77827179	6	0.67269196	1	0.00107915
51	1	60.96329207	34.2508339	66.87198871	6	0.62477204	1	0.00114062
52	1	31.67838382	48.00274994	57.45583319	6	0.89734497	1	0.00139486
53	1	34.10390102	26.60880698	45.62406039	6	0.774375	1	0.00111157
54	1	77.52648692	24.60764673	16.26373465	6	0.77529549	1	0.00128334
55	1	67.88525767	53.37872891	44.96225391	6	0.79905496	1	0.00102161
56	1	64.79088501	88.50093298	29.53084189	6	0.54234193	1	0.00094393
57	1	60.43003338	53.28730702	42.97315011	5	0.70946213	1	0.00104111
58	1	54.83807751	10.98378962	60.72028795	6	0.7770549	1	0.00126308
59	1	31.35116607	40.55781528	6.30253235	5	0.52352865	1	0.00083811
60	1	67.16076994	27.17831981	5.76426639	6	0.9162462	1	0.0012226
61	1	6.14826479	88.59174617	55.50620493	6	0.86136562	1	0.00113146
62	1	26.05902193	13.0841051	3.49043384	5	0.47176479	1	0.00084277
63	1	49.66768303	14.84857943	9.55869245	5	0.45393951	1	0.00073598
64	1	73.81084946	77.23317009	72.01778916	5	0.7410721	1	0.00110051
65	1	49.40371053	-0.0746693	65.46043841	5	0.70469301	1	0.00095767
66	1	17.53357594	50.85807651	66.26805713	6	0.92612205	1	0.00120285
67	1	75.82872582	32.36326733	71.47965174	6	0.77817883	1	0.00101628
68	1	42.4673919	4.91677713	12.30650816	6	0.32552914	1	0.00069961
69	1	71.02597404	52.97434391	47.99456353	6	0.92280927	1	0.00130604
70	1	14.07829035	33.37039216	40.40243216	5	0.6649093	1	0.00098971
71	1	24.50667382	42.46024507	62.8026259	6	0.87091081	1	0.00115049
72	1	21.56078303	54.88040618	41.010152	6	0.88516363	1	0.00130793
73	1	30.34039465	69.38166249	62.22083197	6	0.79579702	1	0.00115019
74	1	22.54771294	53.35324592	18.28603587	5	0.90023927	1	0.00116259
75	1	35.11799503	8.97677399	20.76308526	6	0.85791895	1	0.00108985
76	1	36.7473062	30.68306188	15.37688947	6	0.58950576	1	0.0010631
77	1	35.59397517	33.52800531	35.58797527	6	0.68750879	1	0.000972
78	1	79.17897188	62.36212326	77.40734286	6	0.60404445	1	0.00086898
79	1	42.20161553	0.67710413	82.45659248	6	0.6799504	1	0.001253
80	1	48.88521371	52.26051971	22.50077844	6	0.80683756	1	0.00119216
81	1	54.2181583	77.71553675	14.61105415	6	0.86420748	1	0.00111757
82	1	48.48095053	72.99440116	14.95620573	5	0.7689155	1	0.00104709
83	1	5.92065212	22.35801785	65.48788406	6	0.83180643	1	0.00115944
84	1	59.71198453	82.64418398	75.76416089	6	0.75104494	1	0.00108195
85	1	77.75382732	52.77810087	-0.32029676	5	0.60793106	1	0.00103321
86	1	79.49505374	1.23463078	24.44903522	5	0.62700104	1	0.00080845
87	1	6.26288961	71.50624663	44.72891533	6	0.92582052	1	0.00130249
88	1	57.14421039	79.167205	54.32613134	5	0.51732778	1	0.00090681
89	1	48.92900812	58.11256386	80.22020824	6	0.61100844	1	0.00097232
90	1	35.06505984	12.21406065	31.63302504	5	0.72965313	1	0.00105591
91	1	4.22851097	57.39649469	69.56139244	6	0.6657717	1	0.0012841
92	1	24.55711689	85.46432769	71.62765634	6	0.53697995	1	0.0007358
93	1	51.71980678	37.5230477	22.78432245	6	0.90754388	1	0.00132536
94	1	10.84940952	49.77740656	68.16841223	5	0.82091317	1	0.00125476
95	1	12.78116691	26.77565496	49.15963497	6	0.88792699	1	0.0012373
96	1	24.037118	42.46016112	41.81523464	6	0.85275025	1	0.00124454
97	1	46.34621214	82.23466979	4.11216195	6	0.51896704	1	0.00094097
98	1	52.04564116	42.47246586	36.94801525	6	0.64369526	1	0.00107584
99	1	8.79352822	38.52159342	77.80851689	6	0.734638	1	0.00128085
100	1	31.74223721	4.45800098	81.19076257	6	0.91084725	1	0.00134566
101	1	65.57537372	7.77353494	12.89750745	6	0.77322985	1	0.00119341
102	1	18.05744245	8.44219714	83.27806807	6	0.76746618	1	0.00119272
103	1	22.85908491	0.11294413	20.52141551	7	0.81706699	1	0.00121684
104	1	69.91360825	54.80051759	81.7559406	5	0.86442667	1	0.00100437
105	1	29.5453297	24.78242767	26.40081471	5	0.88276082	1	0.00114447
106	1	11.41813407	47.20675366	49.12719123	6	0.8404971	1	0.00123534
107	1	68.02714359	16.98061903	25.83470977	6	0.72231125	1	0.00109444
108	1	72.67824027	22.56406138	29.2487526	6	0.7621572	1	0.00120427
109	1	45.44661342	66.13956049	33.4957514	6	0.82097521	1	0.00112225
110	1	72.93607024	41.42444652	60.75812384	6	0.46248873	1	0.00078228
111	1	31.11447442	89.19123319	73.17918894	5	0.64847347	1	0.00099319
112	1	84.40087409	67.32979425	22.23236419	5	0.55020947	1	0.00081397
113	1	8.91096482	70.01041355	9.4540145	6	0.78040206	1	0.00113233
114	1	63.37287494	7.13993852	37.87005509	4	0.37921927	0	0.00072115
115	1	40.7218766	63.48248102	54.32524656	6	0.58562642	1	0.00091713
116	1	7.92369422	34.84042117	65.1617581	6	0.90003806	1	0.00119824
117	1	53.51818124	72.85427348	52.74059588	6	0.87331589	1	0.00140528
118	1	69.15261991	0.81637527	18.26096919	6	0.89672615	1	0.00130012
119	1	68.87874362	10.68034146	80.07251378	6	0.80065158	1	0.00118213
120	1	61.17581688	36.65272988	34.73220821	6	0.87705836	1	0.00117744
121	1	84.85617473	57.02253148	36.72487129	6	0.85545873	1	0.00130183
122	1	14.27059363	65.78039034	34.13901146	6	0.81371513	1	0.00124261
123	1	38.74159518	40.25134788	33.9163222	6	0.77055194	1	0.00143181
124	1	83.72892891	6.47132026	62.8512749	6	0.85781342	1	0.00132163
125	1	10.97645877	60.02711775	47.29296585	6	0.89239921	1	0.0014943
126	1	46.12873615	57.58647887	24.06684815	7	0.39886182	1	0.00089531
127	1	53.87835419	64.10065645	11.39205794	6	0.92431456	1	0.00126652
128	1	61.33981686	57.35421733	15.62588981	6	0.80549207	1	0.0013101
129	1	45.40513715	12.97926143	30.04868756	6	0.67304733	1	0.00104446
130	1	8.15454781	56.74041389	35.12371202	6	0.7867748	1	0.00143163
131	1	7.4038398	25.50978704	63.31633789	6	0.91563633	1	0.00121966
132	1	65.31960158	73.33253809	29.46232751	6	0.74320339	1	0.0012071
133	1	18.5276089	46.92402119	81.12321212	6	0.70063056	1	0.00131411
134	1	42.28231194	19.5708022	42.5467752	6	0.64922848	1	0.00110748
135	1	52.66795706	18.24993661	70.27120947	6	0.82748043	1	0.00122872
136	1	83.53447867	23.59458687	32.23451357	6	0.50106714	1	0.00092587
137	1	22.41362153	60.63082482	2.0623377	7	0.39808846	1	0.00097005
138	1	70.86840473	73.56161616	36.98838761	6	0.82160195	1	0.00117444
139	1	35.43463301	67.57414305	72.67514679	6	0.79528264	1	0.00110795
140	1	62.92209249	7.36227548	58.02061433	6	0.77255519	1	0.00140519
141	1	47.50825783	64.92052229	2.42266201	6	0.57970897	1	0.00106771
142	1	37.4115055	22.40845907	59.44993944	6	0.75544768	1	0.00125874
143	1	18.48846426	49.10741959	19.02123109	5	0.52399146	1	0.00089863
144	1	24.96580178	11.60074995	10.64903543	6	0.83197278	1	0.00125547
145	1	76.94440136	17.549765	60.24966318	6	0.88052673	1	0.00124029
146	1	48.00411878	1.12748492	51.10728559	6	0.87928584	1	0.00132869
147	1	24.77804423	14.63475221	15.88998412	6	0.87188429	1	0.00128712
148	1	37.84802561	17.94049124	0.86059362	6	0.775702	1	0.00128541
149	1	70.36522487	30.17607442	1.50989275	6	0.88203267	1	0.00115299
150	1	57.11742285	45.41185467	28.88866744	6	0.85366456	1	0.00116817
151	1	52.53812905	21.29168013	80.4298143	6	0.90098813	1	0.00137881
152	1	30.47044327	76.10670673	73.61914057	6	0.90752463	1	0.00123799
153	1	67.08835322	67.49680462	9.10216471	6	0.86553241	1	0.00120879
154	1	67.44654971	32.00636988	35.31648043	6	0.7108379	1	0.0010095
155	1	59.47297851	15.57913587	35.25974391	4	0.66381569	0	0.00094091
156	1	80.00807083	0.3478127	64.88916419	6	0.8975593	1	0.00119983
157	1	75.05028668	45.19199482	30.80979794	6	0.91571854	1	0.00135339
158	1	73.94226284	7.41962011	0.73278818	6	0.7241283	1	0.00115271
159	1	21.2446723	75.1510232	66.82847284	6	0.8918658	1	0.00111313
160	1	72.31073984	38.78938482	63.30682013	5	0.64216612	1	0.00089862
161	1	36.65144775	66.44553515	8.53170714	5	0.39099838	1	0.00086554
162	1	19.09390035	75.56831512	20.46535083	5	0.75395442	1	0.00105347
163	1	14.51517695	67.99708371	23.60854824	4	0.5812502	0	0.00077137
164	1	11.34167715	0.82357383	60.89545222	6	0.89197783	1	0.00134545
165	1	25.53552342	88.31190993	68.45303585	6	0.71130373	1	0.00113623
166	1	79.89310461	58.03429117	22.29958556	6	0.51308641	1	0.00086293
167	1	39.62916051	80.89884617	77.87834426	6	0.86750745	1	0.00114144
168	1	71.24479867	31.84920447	74.40809963	5	0.65525024	1	0.00095996
169	1	77.86682086	73.68349035	0.27388401	6	0.81713264	1	0.00112394
170	1	29.91609504	4.58166567	55.63895615	5	0.6592472	1	0.0009935
171	1	12.9797021	13.36411546	20.02367769	6	0.80271831	1	0.0011876
172	1	62.84311738	50.63692127	23.86517308	6	0.87701335	1	0.00144181
173	1	58.95831207	14.86149506	67.65300202	6	0.86301195	1	0.00117384
174	1	48.85559716	3.58345791	54.05935723	6	0.9133009	1	0.0014262
175	1	65.26193684	46.37313741	72.10047067	6	0.79730047	1	0.00128405
176	1	29.12447708	65.64805024	69.03035562	6	0.90495813	1	0.00126867
177	1	24.19220314	39.14513194	43.90754972	6	0.88476616	1	0.00127007
178	1	14.78150721	52.87566598	7.7481029	6	0.91375402	1	0.00129191
179	1	44.47257755	38.86301162	39.1726544	5	0.78622732	1	0.00107062
180	1	62.73539906	26.5836242	60.92062309	6	0.58162327	1	0.00090561
181	1	3.40495226	90.06211577	70.78270431	6	0.92228028	1	0.00124025
182	1	10.31070591	4.45066487	7.16785678	6	0.48815597	1	0.00089331
183	1	48.08177332	71.12535297	30.86292647	6	0.91683994	1	0.00141237
184	1	32.70738768	82.53759548	11.28378058	6	0.93670099	1	0.00135017
185	1	15.54773854	73.89613014	20.90406805	4	0.72929351	0	0.00097756
186	1	69.70136712	53.17461071	51.79882155	6	0.8395139	1	0.00130211
187	1	0.65641756	43.50613522	35.73482405	6	0.87527579	1	0.0013397
188	1	59.12386691	80.3590198	49.73604822	4	0.45352344	0	0.00100177
189	1	80.32768647	50.39672366	30.15259748	6	0.58784458	1	0.00082964
190	1	16.17766014	41.37167957	32.72925385	5	0.63221486	1	0.00095979
191	1	18.86627946	33.79408464	54.24600956	5	0.50204468	1	0.00078031
192	1	20.5022826	67.71417898	75.95315458	5	0.84087699	1	0.00106002
193	1	45.28896309	40.9374404	26.64181443	6	0.91412025	1	0.00127734
194	1	19.56434381	14.96585133	22.72689281	6	0.83719121	1	0.00130973
195	1	58.51640565	12.47100312	60.89929625	6	0.88234072	1	0.00144287
196	1	44.40914668	2.49835663	42.13437693	6	0.78948111	1	0.00126799
197	1	28.98166525	47.97648425	60.46509264	6	0.81549161	1	0.0013389
198	1	26.34674953	38.84051192	62.11076511	6	0.83323567	1	0.00108678
199	1	7.3724689	15.41291836	15.93274177	6	0.83925063	1	0.00124076
200	1	43.37831513	22.00109076	31.43625386	6	0.84710261	1	0.00125956
201	1	46.31990381	89.20587314	8.1708082	6	0.87094371	1	0.00121111
202	1	18.6068208	6.1208809	36.62234115	6	0.84992546	1	0.0013234
203	1	80.58115085	54.3933793	40.00669005	6	0.85733552	1	0.00108387
204	1	9.01373254	60.87751709	25.55914035	5	0.47067825	1	0.00098307
205	1	67.33991096	60.95914505	26.63139331	4	0.74049056	0	0.00098146
206	1	77.45569691	48.19736808	9.94885702	6	0.88265158	1	0.00114292
207	1	57.53331304	37.3362529	6.04129556	5	0.60156381	1	0.00083443
208	1	44.3571353	4.11718309	75.67637693	5	0.58332931	1	0.00087857
209	1	26.97969807	80.95144247	56.61529538	6	0.8605396	1	0.00131984
210	1	50.48585825	72.01643288	41.87341668	6	0.90138681	1	0.00126493
211	1	19.12881716	1.48051773	68.6771665	6	0.84129584	1	0.00135387
212	1	19.63581776	6.86886507	76.20410593	6	0.90443126	1	0.00131721
213	1	57.92456067	40.86724111	50.40803188	6	0.73480109	1	0.00090845
214	1	68.94036646	74.84836438	11.33954918	4	0.44676984	0	0.00080636
215	1	14.45310276	9.85119993	19.05230174	6	0.81134748	1	0.00126386
216	1	83.61346306	50.36994958	2.77145696	6	0.91997899	1	0.00128661
217	1	63.8256328	83.12179874	51.94340445	5	0.62446789	1	0.00097314
218	1	21.60247688	87.76385958	4.91606844	6	0.42949423	1	0.00092187
219	1	61.27086123	13.99455561	64.49949145	5	0.38811582	1	0.0007169
220	1	1.57480084	33.46841806	47.03833486	6	0.49110462	1	0.00120047
221	1	56.70337533	60.02251938	51.19821455	5	0.6249017	1	0.00071421
222	1	44.94963889	24.84672053	81.92798818	6	0.70019485	1	0.00108155
223	1	33.16823553	48.81180551	38.91938587	6	0.92695298	1	0.00134194
224	1	30.87721994	29.3144033	80.0841956	6	0.87057188	1	0.00123703
225	1	82.18202277	31.77451366	31.47691752	5	0.71297499	1	0.0011172
226	1	53.13841238	50.61961326	76.01116444	6	0.84006362	1	0.00128338
227	1	76.72531109	79.92262599	38.54733994	6	0.86561766	1	0.00125136
228	1	77.639137	72.87744166	50.81385966	6	0.92524789	1	0.00125776
229	1	72.38999828	13.85181545	41.90259938	6	0.78571213	1	0.00117956
230	1	74.0010391	42.77845217	70.27115911	5	0.74760486	1	0.00105769
231	1	64.13905844	0.28777641	26.34711309	6	0.8974456	1	0.00134624
232	1	60.42674354	75.21538516	69.81884765	6	0.9038443	1	0.00132704
233	1	47.11945749	54.34096877	72.38442521	6	0.59053984	1	0.00108168
234	1	76.34498531	87.5967453	55.94455704	6	0.85106145	1	0.00122604
235	1	30.40827547	36.88979954	77.89906452	6	0.84177744	1	0.00125506
236	1	48.8563055	0.37244616	29.66971237	6	0.79759072	1	0.00115451
237	1	32.36115536	38.76651844	66.14330324	6	0.90600815	1	0.00136548
238	1	67.04854594	29.71770047	74.96635156	6	0.80766738	1	0.0011114
239	1	76.38260938	13.66962931	35.79471179	6	0.75640126	1	0.00107995
240	1	65.31266695	13.63739573	52.22885981	6	0.89806838	1	0.00132461
241	1	66.71247537	9.14458089	42.93198842	5	0.50108779	1	0.00094512
242	1	77.12210423	1.68064072	72.8532411	6	0.8278866	1	0.00113021
243	1	40.85455354	78.08326894	7.84525035	6	0.86786673	1	0.00115204
244	1	11.5100057	37.04300306	40.44721522	6	0.681345	1	0.00100386
245	1	47.80425916	64.99952815	57.76589829	6	0.62940628	1	0.00100012
246	1	75.20365884	35.21743448	5.18367759	5	0.58786709	1	0.00099519
247	1	43.20975123	49.70240319	75.39518544	6	0.8833322	1	0.00118281
248	1	77.40223639	27.00600387	61.51521234	6	0.86878289	1	0.00124281
249	1	53.21745112	88.612706	22.62988033	5	0.8255852	1	0.00108574
250	1	76.13941262	69.03161957	34.85998379	6	0.88413896	1	0.00129024
251	1	36.83327473	-0.13818268	77.94239678	5	0.86819097	1	0.00098247
252	1	84.49621666	13.83102483	55.35781891	6	0.60047204	1	0.00106237
253	1	11.78874579	63.691848	77.89320498	6	0.71277431	1	0.00109065
254	1	14.79559203	38.74622559	82.07615547	6	0.82356599	1	0.00130657
255	1	84.20712852	8.60762991	36.60503627	6	0.84423046	1	0.00111635
256	1	68.46957111	44.1494788	17.07519149	6	0.85810796	1	0.00130996
257	1	51.9537395	12.03397881	14.81852719	4	0.60219927	0	0.00105374
258	1	79.34204237	40.91153697	82.23112895	5	0.60307851	1	0.00083683
259	1	33.9790921	86.22850906	69.58550168	6	0.62165259	1	0.00104848
260	1	71.20161239	7.29841843	67.01890913	6	0.86952708	1	0.0011934
261	1	75.7366444	32.7479683	9.05298163	6	0.47753376	1	0.00083652
262	1	56.20370581	20.35108506	10.56086713	6	0.84554628	1	0.0012104
263	1	17.47756852	73.4856685	24.19338782	6	0.55566463	1	0.00073082
264	1	82.77323823	87.64518337	0.44582186	6	0.91553731	1	0.00139516
265	1	9.6387935	50.53385079	49.64465329	6	0.69593225	1	0.00131912
266	1	47.16210595	25.86064041	71.39417531	6	0.86141977	1	0.00136475
267	1	71.14577188	27.14785113	57.64414771	6	0.77291838	1	0.00104894
268	1	73.99618243	55.81804912	48.48579885	6	0.90496388	1	0.00126753
269	1	35.74407478	11.96224463	82.30993256	6	0.90967644	1	0.00133326
270	1	82.43204877	37.03719064	83.58339002	4	0.47260411	0	0.00091391
271	1	73.44786539	18.44561639	8.17396911	5	0.77192463	1	0.00100568
272	1	51.57143094	88.77908412	0.8910492	6	0.79084172	1	0.00140996
273	1	57.42613576	70.65321866	17.76322474	6	0.77247105	1	0.00125986
274	1	46.29313527	47.61243474	53.30908565	6	0.83746089	1	0.00125671
275	1	23.38927547	15.376998	12.09970407	6	0.92253164	1	0.00133451
276	1	43.18780025	69.90857991	25.66630103	6	0.74120091	1	0.00132112
277	1	45.94157851	79.26912407	83.07062508	5	0.79032626	1	0.00096348
278	1	70.6420379	18.44012305	50.40774888	5	0.75942406	1	0.00106328
279	1	11.37318626	1.16152365	40.74566646	6	0.80089345	1	0.00113143
280	1	22.82624691	44.61997946	29.40622944	6	0.83738822	1	0.00117398
281	1	64.78617944	31.73856026	25.78962439	6	0.76646398	1	0.00109937
282	1	71.10194924	5.91454526	56.30588859	5	0.58875484	1	0.00090568
283	1	10.67562662	7.27091739	47.00236516	6	0.8381858	1	0.00130845
284	1	72.86361536	-1.20364213	64.33452961	6	0.85451372	1	0.0012305
285	1	25.85761906	77.98324864	48.2054871	6	0.868106	1	0.00136694
286	1	15.01448396	30.04647577	74.43995894	6	0.86149383	1	0.00124924
287	1	81.83165527	31.35840757	9.02911865	6	0.82924946	1	0.00115312
288	1	63.08866984	71.6548257	75.57242155	6	0.88037389	1	0.00141224
289	1	44.00763332	19.42767685	77.46133219	6	0.81385557	1	0.00139977
290	1	70.86378036	4.67363237	31.00996829	5	0.76619684	1	0.00116139
291	1	59.34459334	26.73736159	26.57895643	6	0.88000677	1	0.0012173
292	1	26.86797229	65.75744364	77.36124477	5	0.61957761	1	0.00120488
293	1	73.20725419	2.85514713	78.6547569	6	0.88984801	1	0.00145038
294	1	18.5672193	51.52090475	1.88682918	6	0.85941049	1	0.0014063
295	1	57.19785854	0.10915096	57.11918822	6	0.91481972	1	0.00127274
296	1	1.12996237	26.91437346	68.92581612	6	0.93342662	1	0.00128655
297	1	20.83319895	17.12079879	3.78999716	6	0.61592713	1	0.00089517
298	1	20.39744731	37.95792667	13.26565808	6	0.88282671	1	0.00124701
299	1	68.62170981	23.08077457	84.03406174	6	0.91261288	1	0.00113838
300	1	13.08867205	31.28619903	24.19335779	6	0.91248626	1	0.00116322
301	1	58.68825369	14.95182685	8.38752492	6	0.87374985	1	0.00128251
302	1	82.0745643	54.13357632	46.81737633	6	0.84641634	1	0.0013081
303	1	21.15253438	37.31048722	76.55393778	6	0.84436171	1	0.00122965
304	1	70.19799521	7.5209741	27.287732	7	0.71059903	1	0.00125625
305	1	3.16906751	45.24450585	56.75952681	6	0.87861068	1	0.00117114
306	1	19.73413548	18.23258821	28.05864139	6	0.81096433	1	0.00109395
307	1	24.53110481	2.65851548	59.11661432	4	0.7749577	0	0.00102162
308	1	84.70181169	82.21596873	82.94692822	6	0.86265574	1	0.00127508
309	1	79.93220126	54.56167746	76.1736623	6	0.62997011	1	0.00105031
310	1	32.55272482	82.36808806	23.32645634	6	0.86240517	1	0.00115939
311	1	54.912466	41.99902154	48.37615519	6	0.76254299	1	0.00108845
312	1	50.66256855	33.609042	23.9916224	6	0.93464273	1	0.00133522
313	1	14.16449741	24.57976373	17.59372958	6	0.8133502	1	0.00125956
314	1	41.94216112	52.54267834	61.15147488	6	0.73005427	1	0.00133981
315	1	45.13751587	47.45886481	83.65510792	6	0.76419911	1	0.00109295
316	1	30.13065844	55.14222094	66.19864576	6	0.88246503	1	0.00137359
317	1	20.22177166	68.42568784	60.00537655	6	0.92484947	1	0.00127504
318	1	68.78610537	60.56118378	50.93335654	6	0.8258301	1	0.00124833
319	1	63.19360609	11.24168481	72.55940597	6	0.81067233	1	0.00116443
320	1	30.35086555	59.67238162	6.76291487	6	0.88319695	1	0.0013701
321	1	8.4355215	77.86168016	63.3683161	5	0.76750871	1	0.00106241
322	1	58.62245091	23.61950929	23.7320454	6	0.87397864	1	0.00135527
323	1	75.22688209	62.54538648	78.05042334	6	0.53901206	1	0.00089137
324	1	27.61008462	77.29199059	55.25392919	6	0.80629822	1	0.00128931
325	1	28.4994349	73.8462894	53.53235256	6	0.86134625	1	0.00132017
326	1	51.1303841	2.23685562	63.0089053	6	0.86256706	1	0.00138133
327	1	12.1973796	2.08547843	22.69672601	6	0.74407069	1	0.00124411
328	1	24.67694585	58.78985717	74.22910923	6	0.58006133	1	0.00099321
329	1	15.56298213	86.99232445	77.13138278	6	0.8571097	1	0.00130867
330	1	18.86964528	53.10893078	8.71228856	6	0.754725	1	0.00131615
331	1	35.46138015	14.76798176	2.73379898	6	0.2822854	1	0.00141664
332	1	41.86592548	87.65851845	75.76947036	5	0.65382935	1	0.00096274
333	1	3.34960647	2.73146705	42.69458543	6	0.81049073	1	0.00125099
334	1	67.12719151	54.17060664	59.80064123	6	0.65967134	1	0.00124425
335	1	36.82792042	50.51733726	22.67875536	6	0.60985605	1	0.0009434
336	1	52.69175582	82.22990702	40.54555045	5	0.73298734	1	0.00100583
337	1	78.60077096	88.60693963	14.4974807	6	0.93722981	1	0.00123767
338	1	10.76375572	74.26667843	68.64988578	6	0.74266334	1	0.00120688
339	1	22.35982218	68.30210574	41.61952369	5	0.64703284	1	0.0009674
340	1	81.1283034	10.01280017	50.0985808	4	0.69355049	0	0.00090532
341	1	61.44300599	27.57084791	82.65803673	6	0.90148717	1	0.00124135
342	1	54.05600511	1.21053699	41.70661076	6	0.85505381	1	0.00117532
343	1	9.86177584	50.39998193	3.76512935	6	0.75517937	1	0.00121692
344	1	12.24669317	4.86173317	54.38710103	6	0.66176841	1	0.00107927
345	1	10.22383535	28.76046359	22.36639777	6	0.86368068	1	0.00117846
346	1	33.94003703	24.34260644	59.74548365	6	0.66211265	1	0.00126814
347	1	6.72432723	42.5579887	36.07437029	6	0.88727188	1	0.0012907
348	1	15.60556197	80.41361937	46.68561322	6	0.84936365	1	0.00116357
349	1	75.20343882	38.55180139	75.54290029	5	0.77361308	1	0.0011144
350	1	82.1968869	54.3955797	57.86881006	6	0.87106781	1	0.00120758
351	1	71.47538202	44.43070571	26.11532936	6	0.83285717	1	0.00120599
352	1	39.57366747	77.88151933	64.51328918	6	0.88364754	1	0.00127658
353	1	72.44134827	35.31500672	8.01392662	5	0.58413639	1	0.0009944
354	1	82.63941529	14.99730156	59.96283803	6	0.83202645	1	0.00115974
355	1	69.66453647	81.41988532	70.47187283	6	0.84677301	1	0.00132277
356	1	79.26468176	79.45581341	41.87317717	6	0.8636547	1	0.00125629
357	1	77.93846913	42.5278352	37.09904513	6	0.78904337	1	0.00136006
358	1	33.05392644	85.91653248	2.58445702	5	0.45970578	1	0.00081145
359	1	43.77702246	61.52796292	16.52804855	6	0.59189633	1	0.00073601
360	1	54.03961836	88.17824999	28.54168406	5	0.86548214	1	0.00095771
361	1	11.40274452	85.31854078	82.82758667	5	0.78153317	1	0.00100628
362	1	62.56932361	55.48588195	4.2233996	6	0.72037602	1	0.0011418
363	1	65.9208921	74.87711325	76.18811464	6	0.89441532	1	0.00134978
364	1	4.90073754	35.90063873	67.86555157	6	0.83233277	1	0.00124293
365	1	61.88312863	60.51207773	37.63793066	6	0.75903598	1	0.00112636
366	1	22.9719579	89.17486362	71.44632214	6	0.84048316	1	0.0011572
367	1	12.4456295	15.14588435	71.69742303	6	0.7377666	1	0.00111584
368	1	0.14118105	58.665149	59.39162404	6	0.89311513	1	0.00127284
369	1	10.02143992	70.57491092	70.85315998	6	0.87146394	1	0.00115078
370	1	6.8878485	24.99819438	55.59855718	4	0.35430317	0	0.00089491
371	1	29.77290897	24.25464563	45.53839971	6	0.85601031	1	0.00112869
372	1	32.39102029	68.4384005	69.72807702	6	0.92092288	1	0.0012594
373	1	18.96067049	89.23621548	70.78567438	6	0.84535707	1	0.00142178
374	1	55.12049641	30.25369246	43.49182292	6	0.58683036	1	0.00095441
375	1	58.94462112	8.27755493	5.25130388	5	0.67430894	1	0.00105364
376	1	27.52685075	40.6466055	50.11498612	6	0.89271646	1	0.00122776
377	1	51.36086595	75.60496385	75.88168731	6	0.83993542	1	0.00130796
378	1	25.80266562	39.56756272	71.51842259	6	0.93240769	1	0.00136049
379	1	48.19192719	9.95563212	4.43294445	6	0.70276257	1	0.00093316
380	1	19.58491074	89.15649331	36.78395396	6	0.82658784	1	0.00119212
381	1	44.54834628	68.40577402	30.60828294	6	0.62981661	1	0.00105273
382	1	51.45143322	63.43218837	26.36595107	6	0.79068431	1	0.00114374
383	1	30.31094508	51.81937047	39.90353564	6	0.89676824	1	0.00127657
384	1	26.90141494	89.07362993	2.17766788	6	0.69904254	1	0.00106437
385	1	40.80876333	84.85590436	17.28568149	6	0.93796025	1	0.00136021
386	1	40.97500258	30.26926718	75.54033924	5	0.82912325	1	0.00104973
387	1	57.75699234	39.29424037	75.59926637	6	0.59141943	1	0.00093247
388	1	58.11299708	20.55550073	3.42481043	6	0.87726374	1	0.00125363
389	1	47.6256937	72.23659146	1.95286965	5	0.74121939	1	0.00101191
390	1	68.17694047	85.91757417	80.92883601	6	0.77871923	1	0.00112775
391	1	62.37757434	72.50303404	32.58319541	6	0.89195899	1	0.0014407
392	1	55.54896418	55.9465872	82.02655533	6	0.92780367	1	0.00152083
393	1	3.46359142	51.80226455	52.43274467	6	0.56776214	1	0.00098655
394	1	10.25053217	43.45098706	79.04737154	6	0.65500632	1	0.00120386
395	1	22.80239068	51.8314644	25.17472082	6	0.71574978	1	0.0012286
396	1	70.33195322	87.04525564	24.87997483	6	0.84463401	1	0.00135283
397	1	60.17233982	28.22342912	42.45593373	4	0.6784366	0	0.00100001
398	1	58.98307991	34.37933087	53.95484915	6	0.48022287	1	0.00081367
399	1	9.33457314	26.80950874	5.77338758	6	0.85303395	1	0.00114732
400	1	27.17112734	32.06261879	16.29995107	6	0.88260094	1	0.0012616
401	1	82.41249115	82.35741021	42.83707114	6	0.87321779	1	0.00129997
402	1	71.64987144	56.11783021	68.08819663	6	0.68361769	1	0.00093152
403	1	66.23436196	19.47826536	33.65521675	7	0.65854517	1	0.00100346
404	1	33.49695248	5.13030689	17.29359889	6	0.83358584	1	0.00130659
405	1	81.76129035	27.00684169	22.19567189	6	0.79126989	1	0.00127658
406	1	11.28911589	59.60997817	69.07002255	7	0.64449709	1	0.00116827
407	1	6.9441878	28.63634458	53.09318834	6	0.65485088	1	0.00099893
408	1	9.71142866	48.02065125	81.6882617	6	0.7002843	1	0.00108591
409	1	54.45139018	82.0113939	53.05452947	6	0.65525112	1	0.00108042
410	1	14.4212315	29.10186732	80.38001258	6	0.92813622	1	0.00129574
411	1	8.7989515	52.94521181	22.05076281	6	0.6161975	1	0.00102917
412	1	39.42383777	82.11331167	14.29812884	6	0.90475704	1	0.00126919
413	1	24.64886795	37.09322228	13.6464856	6	0.81546504	1	0.00110339
414	1	52.27382969	61.62408503	0.21936423	6	0.72876313	1	0.00111941
415	1	67.34478975	16.82740553	49.80972798	6	0.64092319	1	0.00100183
416	1	22.94423821	60.81005886	52.76677491	6	0.68701799	1	0.0011503
417	1	20.07247275	24.22957127	38.08396159	6	0.79967124	1	0.0011506
418	1	78.57287472	9.60137442	16.47980951	6	0.78231706	1	0.00121873
419	1	78.12804519	63.94456989	10.44361118	6	0.90770176	1	0.00122728
420	1	69.52011069	3.50840909	80.99174736	6	0.77277162	1	0.00119404
421	1	56.95460872	22.5653598	54.29535615	6	0.7328222	1	0.00093841
422	1	67.67217662	8.11791903	77.54197654	5	0.69673846	1	0.00110709
423	1	1.98535851	3.83639592	13.86396993	6	0.81978085	1	0.00096961
424	1	68.57848959	84.87413845	21.53003449	6	0.92459986	1	0.00131573
425	1	54.36365285	23.63233098	51.25347044	6	0.8101091	1	0.00127214
426	1	75.14908064	23.55239394	80.4237013	5	0.63786278	1	0.00071418
427	1	46.45930046	62.57664649	10.08500783	6	0.63732057	1	0.00100759
428	1	57.192243	76.78920337	3.56281837	6	0.84777821	1	0.00116353
429	1	51.76843574	19.8474464	6.89253347	6	0.76601447	1	0.00142767
430	1	32.62892436	82.53725734	5.07667943	6	0.93589132	1	0.00142392
431	1	75.51122243	59.18989444	42.30307381	6	0.8637251	1	0.00126936
432	1	19.4701559	20.31747049	36.81853989	6	0.83702726	1	0.00144642
433	1	18.6747247	72.40667163	39.94152987	6	0.87752169	1	0.00132803
434	1	69.71077202	77.896655	61.67661209	6	0.83091688	1	0.00111589
435	1	57.12177005	54.83037861	28.39093708	5	0.46326088	1	0.00086576
436	1	26.10323882	51.03255072	27.35966142	6	0.79956058	1	0.00114987
437	1	52.34989575	44.95268156	56.01932852	5	0.76135618	1	0.00097405
438	1	1.43678058	54.70706337	68.61177071	6	0.69058403	1	0.00115769
439	1	75.26777191	5.82915413	66.67019655	6	0.84193222	1	0.00115027